
     Program PWSCF v.7.0 starts on 30Jan2023 at  6:57:23 

     This program is part of the open-source Quantum ESPRESSO suite
     for quantum simulation of materials; please cite
         "P. Giannozzi et al., J. Phys.:Condens. Matter 21 395502 (2009);
         "P. Giannozzi et al., J. Phys.:Condens. Matter 29 465901 (2017);
         "P. Giannozzi et al., J. Chem. Phys. 152 154105 (2020);
          URL http://www.quantum-espresso.org", 
     in publications or presentations arising from this work. More details at
     http://www.quantum-espresso.org/quote

     Parallel version (MPI), running on    40 processors

     MPI processes distributed on     2 nodes
     R & G space division:  proc/nbgrp/npool/nimage =      40
     59485 MiB available memory on the printing compute node when the environment starts
 
     Reading input from al2o3.in

     Current dimensions of program PWSCF are:
     Max number of different atomic species (ntypx) = 10
     Max number of k-points (npk) =  40000
     Max angular momentum in pseudopotentials (lmaxx) =  4
     Found identity + ( -0.5000  0.0000 -0.5000) symmetry
     This is a supercell, fractional translations are disabled
     Message from routine setup:
     using ibrav=0 with symmetry is DISCOURAGED, use correct ibrav instead

     Subspace diagonalization in iterative solution of the eigenvalue problem:
     a serial algorithm will be used

 
     Parallelization info
     --------------------
     sticks:   dense  smooth     PW     G-vecs:    dense   smooth      PW
     Min         224      89     24                15948     4033     565
     Max         225      90     26                15953     4040     568
     Sum        8969    3577    973               637963   161427   22647
 
     Using Slab Decomposition
 


     bravais-lattice index     =            0
     lattice parameter (alat)  =      15.0010  a.u.
     unit-cell volume          =    3375.6912 (a.u.)^3
     number of atoms/cell      =          120
     number of atomic types    =            2
     number of electrons       =       456.00
     number of Kohn-Sham states=          274
     kinetic-energy cutoff     =      50.0000  Ry
     charge density cutoff     =     500.0000  Ry
     scf convergence threshold =      1.0E-04
     mixing beta               =       0.4000
     number of iterations used =            8  local-TF  mixing
     energy convergence thresh.=      1.0E-04
     force convergence thresh. =      1.0E-03
     press convergence thresh. =      5.0E-01
     Exchange-correlation= PBE
                           (   1   4   3   4   0   0   0)
     nstep                     =          100


     celldm(1)=  15.001024  celldm(2)=   0.000000  celldm(3)=   0.000000
     celldm(4)=   0.000000  celldm(5)=   0.000000  celldm(6)=   0.000000

     crystal axes: (cart. coord. in units of alat)
               a(1) = (   1.000000   0.000000   0.000000 )  
               a(2) = (   0.000000   1.000000   0.000000 )  
               a(3) = (   0.000000   0.000000   1.000000 )  

     reciprocal axes: (cart. coord. in units 2 pi/alat)
               b(1) = (  1.000000  0.000000  0.000000 )  
               b(2) = (  0.000000  1.000000  0.000000 )  
               b(3) = (  0.000000  0.000000  1.000000 )  


     PseudoPot. # 1 for Al read from file:
     ./Al.pbe-nl-rrkjus_psl.1.0.0.UPF
     MD5 check sum: 6db8691240a1c860ce6448702d298c4b
     Pseudo is Ultrasoft + core correction, Zval =  3.0
     Generated using &quot;atomic&quot; code by A. Dal Corso  v.6.3
     Using radial grid of 1135 points,  4 beta functions with: 
                l(1) =   0
                l(2) =   0
                l(3) =   1
                l(4) =   1
     Q(r) pseudized with 0 coefficients 


     PseudoPot. # 2 for O  read from file:
     ./O.pbe-n-rrkjus_psl.1.0.0.UPF
     MD5 check sum: 91400c9766925bcf19f520983a725ff0
     Pseudo is Ultrasoft + core correction, Zval =  6.0
     Generated using &quot;atomic&quot; code by A. Dal Corso  v.6.3MaX
     Using radial grid of 1095 points,  4 beta functions with: 
                l(1) =   0
                l(2) =   0
                l(3) =   1
                l(4) =   1
     Q(r) pseudized with 0 coefficients 


     atomic species   valence    mass     pseudopotential
        Al             3.00    26.98154     Al( 1.00)
        O              6.00    15.99940     O ( 1.00)

     12 Sym. Ops., with inversion, found



   Cartesian axes

     site n.     atom                  positions (alat units)
         1           Al  tau(   1) = (   0.1250000   0.1250000   0.1250000  )
         2           Al  tau(   2) = (   0.8750000   0.8750000   0.8750000  )
         3           Al  tau(   3) = (   0.6250000   0.1250000   0.6250000  )
         4           Al  tau(   4) = (   0.3750000   0.8750000   0.3750000  )
         5           Al  tau(   5) = (   0.1250000   0.6250000   0.6250000  )
         6           Al  tau(   6) = (   0.8750000   0.3750000   0.3750000  )
         7           Al  tau(   7) = (   0.6250000   0.6250000   0.1250000  )
         8           Al  tau(   8) = (   0.3750000   0.3750000   0.8750000  )
         9           Al  tau(   9) = (   0.5000000   0.5000000   0.5000000  )
        10           Al  tau(  10) = (   0.2500000   0.7500000   0.0000000  )
        11           Al  tau(  11) = (   0.7500000   0.2500000   0.0000000  )
        12           Al  tau(  12) = (   0.7500000   0.0000000   0.2500000  )
        13           Al  tau(  13) = (   0.2500000   0.0000000   0.7500000  )
        14           Al  tau(  14) = (   0.0000000   0.2500000   0.7500000  )
        15           Al  tau(  15) = (   0.0000000   0.7500000   0.2500000  )
        16           Al  tau(  16) = (   0.5000000   0.0000000   0.0000000  )
        17           Al  tau(  17) = (   0.2500000   0.2500000   0.5000000  )
        18           Al  tau(  18) = (   0.7500000   0.7500000   0.5000000  )
        19           Al  tau(  19) = (   0.7500000   0.5000000   0.7500000  )
        20           Al  tau(  20) = (   0.2500000   0.5000000   0.2500000  )
        21           Al  tau(  21) = (   0.0000000   0.5000000   0.0000000  )
        22           Al  tau(  22) = (   0.5000000   0.2500000   0.2500000  )
        23           Al  tau(  23) = (   0.5000000   0.7500000   0.7500000  )
        24           Al  tau(  24) = (   0.0000000   0.0000000   0.5000000  )
        25           Al  tau(  25) = (   0.0000000   0.0000000   0.0000000  )
        26           Al  tau(  26) = (   0.7500000   0.2500000   0.5000000  )
        27           Al  tau(  27) = (   0.2500000   0.7500000   0.5000000  )
        28           Al  tau(  28) = (   0.2500000   0.5000000   0.7500000  )
        29           Al  tau(  29) = (   0.7500000   0.5000000   0.2500000  )
        30           Al  tau(  30) = (   0.5000000   0.7500000   0.2500000  )
        31           Al  tau(  31) = (   0.5000000   0.2500000   0.7500000  )
        32           Al  tau(  32) = (   0.0000000   0.5000000   0.5000000  )
        33           Al  tau(  33) = (   0.7500000   0.7500000   0.0000000  )
        34           Al  tau(  34) = (   0.2500000   0.2500000   0.0000000  )
        35           Al  tau(  35) = (   0.2500000   0.0000000   0.2500000  )
        36           Al  tau(  36) = (   0.7500000   0.0000000   0.7500000  )
        37           Al  tau(  37) = (   0.5000000   0.0000000   0.5000000  )
        38           Al  tau(  38) = (   0.0000000   0.7500000   0.7500000  )
        39           Al  tau(  39) = (   0.0000000   0.2500000   0.2500000  )
        40           Al  tau(  40) = (   0.5000000   0.5000000   0.0000000  )
        41           Al  tau(  41) = (   0.8769999   0.1250000   0.1250000  )
        42           Al  tau(  42) = (   0.1230001   0.8750000   0.8750000  )
        43           Al  tau(  43) = (   0.8730001   0.1250000   0.6250000  )
        44           Al  tau(  44) = (   0.1269999   0.8750000   0.3750000  )
        45           Al  tau(  45) = (   0.3730001   0.6250000   0.6250000  )
        46           Al  tau(  46) = (   0.6269999   0.3750000   0.3750000  )
        47           Al  tau(  47) = (   0.3769999   0.6250000   0.1250000  )
        48           Al  tau(  48) = (   0.6230001   0.3750000   0.8750000  )
        49           Al  tau(  49) = (   0.1250000   0.8769999   0.1250000  )
        50           Al  tau(  50) = (   0.8750000   0.1230001   0.8750000  )
        51           Al  tau(  51) = (   0.6250000   0.8730001   0.1250000  )
        52           Al  tau(  52) = (   0.3750000   0.1269999   0.8750000  )
        53           Al  tau(  53) = (   0.6250000   0.3730001   0.6250000  )
        54           Al  tau(  54) = (   0.3750000   0.6269999   0.3750000  )
        55           Al  tau(  55) = (   0.1250000   0.3769999   0.6250000  )
        56           Al  tau(  56) = (   0.8750000   0.6230001   0.3750000  )
        57           Al  tau(  57) = (   0.1250000   0.1250000   0.8769999  )
        58           Al  tau(  58) = (   0.8750000   0.8750000   0.1230001  )
        59           Al  tau(  59) = (   0.1250000   0.6250000   0.8730001  )
        60           Al  tau(  60) = (   0.8750000   0.3750000   0.1269999  )
        61           Al  tau(  61) = (   0.6250000   0.6250000   0.3730001  )
        62           Al  tau(  62) = (   0.3750000   0.3750000   0.6269999  )
        63           Al  tau(  63) = (   0.6250000   0.1250000   0.3769999  )
        64           Al  tau(  64) = (   0.3750000   0.8750000   0.6230001  )
        65           Al  tau(  65) = (   0.8750000   0.1269999   0.3750000  )
        66           Al  tau(  66) = (   0.1250000   0.8730001   0.6250000  )
        67           Al  tau(  67) = (   0.3750000   0.6230001   0.8750000  )
        68           Al  tau(  68) = (   0.6250000   0.3769999   0.1250000  )
        69           Al  tau(  69) = (   0.6230001   0.8750000   0.3750000  )
        70           Al  tau(  70) = (   0.3769999   0.1250000   0.6250000  )
        71           Al  tau(  71) = (   0.1269999   0.3750000   0.8750000  )
        72           Al  tau(  72) = (   0.8730001   0.6250000   0.1250000  )
        73           Al  tau(  73) = (   0.8750000   0.3750000   0.6230001  )
        74           Al  tau(  74) = (   0.1250000   0.6250000   0.3769999  )
        75           Al  tau(  75) = (   0.3750000   0.8750000   0.1269999  )
        76           Al  tau(  76) = (   0.6250000   0.1250000   0.8730001  )
        77           Al  tau(  77) = (   0.8769999   0.6250000   0.6250000  )
        78           Al  tau(  78) = (   0.1230001   0.3750000   0.3750000  )
        79           Al  tau(  79) = (   0.3730001   0.1250000   0.1250000  )
        80           Al  tau(  80) = (   0.6269999   0.8750000   0.8750000  )
        81           Al  tau(  81) = (   0.1250000   0.1250000   0.3730001  )
        82           Al  tau(  82) = (   0.8750000   0.8750000   0.6269999  )
        83           Al  tau(  83) = (   0.6250000   0.6250000   0.8769999  )
        84           Al  tau(  84) = (   0.3750000   0.3750000   0.1230001  )
        85           Al  tau(  85) = (   0.8750000   0.6269999   0.8750000  )
        86           Al  tau(  86) = (   0.1250000   0.3730001   0.1250000  )
        87           Al  tau(  87) = (   0.3750000   0.1230001   0.3750000  )
        88           Al  tau(  88) = (   0.6250000   0.8769999   0.6250000  )
        89           O   tau(  89) = (   0.2567300   0.2567300   0.2567300  )
        90           O   tau(  90) = (   0.7432700   0.7432700   0.7432700  )
        91           O   tau(  91) = (   0.4932700   0.9932700   0.7567300  )
        92           O   tau(  92) = (   0.5067300   0.0067300   0.2432700  )
        93           O   tau(  93) = (   0.9932700   0.7567300   0.4932700  )
        94           O   tau(  94) = (   0.0067300   0.2432700   0.5067300  )
        95           O   tau(  95) = (   0.7567300   0.4932700   0.9932700  )
        96           O   tau(  96) = (   0.2432700   0.5067300   0.0067300  )
        97           O   tau(  97) = (   0.0067300   0.5067300   0.2432700  )
        98           O   tau(  98) = (   0.9932700   0.4932700   0.7567300  )
        99           O   tau(  99) = (   0.5067300   0.2432700   0.0067300  )
       100           O   tau( 100) = (   0.4932700   0.7567300   0.9932700  )
       101           O   tau( 101) = (   0.2432700   0.0067300   0.5067300  )
       102           O   tau( 102) = (   0.7567300   0.9932700   0.4932700  )
       103           O   tau( 103) = (   0.2567300   0.7567300   0.7567300  )
       104           O   tau( 104) = (   0.7432700   0.2432700   0.2432700  )
       105           O   tau( 105) = (   0.4932700   0.4932700   0.2567300  )
       106           O   tau( 106) = (   0.5067300   0.5067300   0.7432700  )
       107           O   tau( 107) = (   0.9932700   0.2567300   0.9932700  )
       108           O   tau( 108) = (   0.0067300   0.7432700   0.0067300  )
       109           O   tau( 109) = (   0.0067300   0.0067300   0.7432700  )
       110           O   tau( 110) = (   0.9932700   0.9932700   0.2567300  )
       111           O   tau( 111) = (   0.5067300   0.7432700   0.5067300  )
       112           O   tau( 112) = (   0.4932700   0.2567300   0.4932700  )
       113           O   tau( 113) = (   0.7567300   0.2567300   0.7567300  )
       114           O   tau( 114) = (   0.2432700   0.7432700   0.2432700  )
       115           O   tau( 115) = (   0.2567300   0.4932700   0.4932700  )
       116           O   tau( 116) = (   0.7432700   0.5067300   0.5067300  )
       117           O   tau( 117) = (   0.7432700   0.0067300   0.0067300  )
       118           O   tau( 118) = (   0.2567300   0.9932700   0.9932700  )
       119           O   tau( 119) = (   0.7567300   0.7567300   0.2567300  )
       120           O   tau( 120) = (   0.2432700   0.2432700   0.7432700  )

     number of k points=    10  Gaussian smearing, width (Ry)=  0.0100
                       cart. coord. in units 2pi/alat
        k(    1) = (   0.1250000   0.1250000   0.1250000), wk =   0.0625000
        k(    2) = (   0.1250000   0.1250000   0.3750000), wk =   0.1875000
        k(    3) = (   0.1250000   0.3750000   0.3750000), wk =   0.1875000
        k(    4) = (   0.3750000   0.3750000   0.3750000), wk =   0.0625000
        k(    5) = (  -0.1250000   0.1250000   0.1250000), wk =   0.1875000
        k(    6) = (  -0.1250000   0.3750000   0.1250000), wk =   0.3750000
        k(    7) = (   0.1250000  -0.3750000   0.1250000), wk =   0.1875000
        k(    8) = (  -0.1250000   0.3750000   0.3750000), wk =   0.1875000
        k(    9) = (   0.1250000   0.3750000  -0.3750000), wk =   0.3750000
        k(   10) = (  -0.3750000   0.3750000   0.3750000), wk =   0.1875000

     Dense  grid:   637963 G-vectors     FFT dimensions: ( 108, 108, 108)

     Smooth grid:   161427 G-vectors     FFT dimensions: (  72,  72,  72)

     Estimated max dynamical RAM per process >     116.41 MB

     Estimated total dynamical RAM >       4.55 GB

     Initial potential from superposition of free atoms

     starting charge     455.7984, renormalised to     456.0000
     Starting wfcs are  480 randomized atomic wfcs

     total cpu time spent up to now is       21.8 secs

     Self-consistent Calculation

     iteration #  1     ecut=    50.00 Ry     beta= 0.40
     CG style diagonalization
     ethr =  1.00E-02,  avg # of iterations =  2.9

     total cpu time spent up to now is      163.6 secs

     total energy              =   -1316.64147770 Ry
     estimated scf accuracy    <      20.74956886 Ry

     iteration #  2     ecut=    50.00 Ry     beta= 0.40
     CG style diagonalization
     ethr =  4.55E-03,  avg # of iterations =  4.7

     total cpu time spent up to now is      354.1 secs

     total energy              =   -1328.86978001 Ry
     estimated scf accuracy    <      13.20552995 Ry

     iteration #  3     ecut=    50.00 Ry     beta= 0.40
     CG style diagonalization
     ethr =  2.90E-03,  avg # of iterations =  4.0

     total cpu time spent up to now is      508.8 secs

     total energy              =   -1332.39529820 Ry
     estimated scf accuracy    <       4.44298233 Ry

     iteration #  4     ecut=    50.00 Ry     beta= 0.40
     CG style diagonalization
     ethr =  9.74E-04,  avg # of iterations =  4.0

     total cpu time spent up to now is      665.1 secs

     total energy              =   -1333.27053298 Ry
     estimated scf accuracy    <       1.34797031 Ry

     iteration #  5     ecut=    50.00 Ry     beta= 0.40
     CG style diagonalization
     ethr =  2.96E-04,  avg # of iterations =  4.9

     total cpu time spent up to now is      861.2 secs

     total energy              =   -1334.37819558 Ry
     estimated scf accuracy    <       0.30407496 Ry

     iteration #  6     ecut=    50.00 Ry     beta= 0.40
     CG style diagonalization
     c_bands:  1 eigenvalues not converged
     ethr =  6.67E-05,  avg # of iterations =  5.3

     total cpu time spent up to now is     1077.0 secs

     total energy              =   -1334.68813768 Ry
     estimated scf accuracy    <       0.09448862 Ry

     iteration #  7     ecut=    50.00 Ry     beta= 0.40
     CG style diagonalization
     c_bands:  1 eigenvalues not converged
     c_bands:  3 eigenvalues not converged
     ethr =  2.07E-05,  avg # of iterations =  5.7

     total cpu time spent up to now is     1312.9 secs

     total energy              =   -1334.78705881 Ry
     estimated scf accuracy    <       0.08069380 Ry

     iteration #  8     ecut=    50.00 Ry     beta= 0.40
     CG style diagonalization
     ethr =  1.77E-05,  avg # of iterations =  4.9

     total cpu time spent up to now is     1510.3 secs

     total energy              =   -1334.82682206 Ry
     estimated scf accuracy    <       0.04134406 Ry

     iteration #  9     ecut=    50.00 Ry     beta= 0.40
     CG style diagonalization
     ethr =  9.07E-06,  avg # of iterations =  4.8

     total cpu time spent up to now is     1701.7 secs

     total energy              =   -1334.84269029 Ry
     estimated scf accuracy    <       0.02606262 Ry

     iteration # 10     ecut=    50.00 Ry     beta= 0.40
     CG style diagonalization
     c_bands:  1 eigenvalues not converged
     c_bands:  1 eigenvalues not converged
     ethr =  5.72E-06,  avg # of iterations =  4.1

     total cpu time spent up to now is     1862.8 secs

     total energy              =   -1334.84448711 Ry
     estimated scf accuracy    <       0.00988996 Ry

     iteration # 11     ecut=    50.00 Ry     beta= 0.40
     CG style diagonalization
     c_bands:  1 eigenvalues not converged
     c_bands:  2 eigenvalues not converged
     c_bands:  1 eigenvalues not converged
     c_bands:  1 eigenvalues not converged
     c_bands:  1 eigenvalues not converged
     c_bands:  1 eigenvalues not converged
     ethr =  2.17E-06,  avg # of iterations =  5.1

     total cpu time spent up to now is     2068.6 secs

     total energy              =   -1334.85106621 Ry
     estimated scf accuracy    <       0.00278418 Ry

     iteration # 12     ecut=    50.00 Ry     beta= 0.40
     CG style diagonalization
     c_bands:  1 eigenvalues not converged
     c_bands:  1 eigenvalues not converged
     c_bands:  2 eigenvalues not converged
     c_bands:  1 eigenvalues not converged
     c_bands:  1 eigenvalues not converged
     ethr =  6.11E-07,  avg # of iterations =  5.2

     total cpu time spent up to now is     2278.8 secs

     total energy              =   -1334.85379908 Ry
     estimated scf accuracy    <       0.00246997 Ry

     iteration # 13     ecut=    50.00 Ry     beta= 0.40
     CG style diagonalization
     c_bands:  1 eigenvalues not converged
     c_bands:  1 eigenvalues not converged
     c_bands:  1 eigenvalues not converged
     ethr =  5.42E-07,  avg # of iterations =  4.0

     total cpu time spent up to now is     2433.2 secs

     total energy              =   -1334.85426021 Ry
     estimated scf accuracy    <       0.00231339 Ry

     iteration # 14     ecut=    50.00 Ry     beta= 0.40
     CG style diagonalization
     c_bands:  1 eigenvalues not converged
     c_bands:  1 eigenvalues not converged
     ethr =  5.07E-07,  avg # of iterations =  3.4

     total cpu time spent up to now is     2559.9 secs

     total energy              =   -1334.85422528 Ry
     estimated scf accuracy    <       0.00179997 Ry

     iteration # 15     ecut=    50.00 Ry     beta= 0.40
     CG style diagonalization
     c_bands:  1 eigenvalues not converged
     ethr =  3.95E-07,  avg # of iterations =  3.2

     total cpu time spent up to now is     2679.5 secs

     total energy              =   -1334.85412238 Ry
     estimated scf accuracy    <       0.00102074 Ry

     iteration # 16     ecut=    50.00 Ry     beta= 0.40
     CG style diagonalization
     c_bands:  1 eigenvalues not converged
     ethr =  2.24E-07,  avg # of iterations =  3.6

     total cpu time spent up to now is     2816.5 secs

     total energy              =   -1334.85425553 Ry
     estimated scf accuracy    <       0.00033330 Ry

     iteration # 17     ecut=    50.00 Ry     beta= 0.40
     CG style diagonalization
     ethr =  7.31E-08,  avg # of iterations =  4.7

     total cpu time spent up to now is     3004.2 secs

     total energy              =   -1334.85451601 Ry
     estimated scf accuracy    <       0.00018994 Ry

     iteration # 18     ecut=    50.00 Ry     beta= 0.40
     CG style diagonalization
     c_bands:  1 eigenvalues not converged
     ethr =  4.17E-08,  avg # of iterations =  3.9

     total cpu time spent up to now is     3153.5 secs

     total energy              =   -1334.85455369 Ry
     estimated scf accuracy    <       0.00011205 Ry

     iteration # 19     ecut=    50.00 Ry     beta= 0.40
     CG style diagonalization
     ethr =  2.46E-08,  avg # of iterations =  3.7

     total cpu time spent up to now is     3292.7 secs

     End of self-consistent calculation

          k = 0.1250 0.1250 0.1250 ( 20110 PWs)   bands (ev):

    -1.2279  -0.3411  -0.3410  -0.3410   0.1173   0.1173   0.1173   0.3871
     0.3871   0.3871   0.6687   0.6687   0.6687   0.6790   0.7152   0.7152
     0.7152   0.7936   0.7936   0.7982   0.9181   0.9181   0.9181   1.2436
     1.2436   1.2510   1.3100   1.3100   1.3100   1.3116   1.3116   1.3116
    10.6400  10.6400  10.7169  11.2213  11.3811  11.3811  11.8338  11.8338
    11.8338  11.8430  11.8430  11.8430  12.0347  12.1987  12.1987  12.1987
    12.3453  12.3453  12.3454  12.4863  12.4864  12.4864  12.5289  12.5289
    12.5289  12.9629  12.9629  12.9629  13.0843  13.0843  13.0843  13.2408
    13.2408  13.2408  13.6648  13.6648  13.6648  13.9443  13.9444  13.9444
    14.0977  14.0977  14.0977  14.2353  14.2353  14.2353  14.2705  14.2705
    14.2705  14.4690  14.4690  14.4955  14.4955  14.4955  14.6112  14.7183
    14.7183  14.7183  14.9956  15.1702  15.1702  15.2790  15.2790  15.2790
    15.2970  15.2970  15.2970  15.3713  15.3713  15.4424  15.4738  15.4738
    15.4738  15.5596  15.5596  15.5596  15.6242  15.6242  16.0720  16.0720
    16.0720  16.0999  16.0999  16.0999  16.2798  16.2904  16.2904  16.2904
    16.3774  16.3945  16.3945  16.3946  16.4603  16.4603  16.6598  16.6598
    22.5377  22.5377  22.5513  23.5892  24.6570  24.6570  24.6570  24.8667
    24.8667  24.8667  24.8770  24.8770  24.8770  25.2927  25.2927  25.2927
    26.0098  26.1311  26.4370  26.4370  26.4370  26.5076  26.6277  26.6277
    26.9181  26.9181  26.9181  26.9945  26.9945  26.9945  27.1352  27.1352
    27.4651  27.4651  27.4651  27.7493  27.7493  27.7493  27.8231  27.8231
    27.9362  27.9362  27.9362  28.0772  28.0772  28.0772  28.1924  28.3803
    28.3803  28.3803  28.6430  28.7560  28.7560  28.7560  28.7653  28.7653
    29.0588  29.0588  29.0588  29.0991  29.0991  29.0991  29.1515  29.1515
    29.2499  29.2499  29.2499  29.4764  29.4764  29.4764  29.4955  29.4955
    29.4955  29.6056  29.6056  29.6056  29.7068  29.7068  29.7068  29.7504
    29.9185  29.9185  30.0888  30.0888  30.0888  30.1170  30.1170  30.1170
    30.4018  30.4018  30.4018  30.4184  30.4184  30.4184  30.8633  30.8633
    30.8633  30.9404  30.9404  30.9404  31.1784  31.1785  31.1784  31.7032
    31.7036  31.7038  31.7059  31.7792  31.7797  31.7800  31.7804  31.7807
    31.9075  32.0434  32.0445  32.1281  32.1282  32.1287  32.4021  32.4032
    32.4032  32.7978  32.7983  32.7984  32.8378  32.8384  32.8387  33.0420
    33.0425  33.0437  33.5690  33.5702  33.5748  33.9267  33.9274  33.9930
    33.9964  34.0002  34.0717  34.2423  34.2441  34.2499  34.3968  34.3995
    34.4013  35.2006

          k = 0.1250 0.1250 0.3750 ( 20152 PWs)   bands (ev):

    -1.0651  -0.7571  -0.2368  -0.2368   0.0366   0.0366   0.2715   0.2715
     0.4016   0.4850   0.4851   0.5391   0.6002   0.7044   0.7527   0.7561
     0.7778   0.8619   0.9165   0.9788   0.9788   1.0541   1.1077   1.1077
     1.2014   1.2014   1.2452   1.2452   1.2630   1.2669   1.2905   1.2928
    10.8625  10.9172  11.0610  11.3258  11.3884  11.5271  11.5561  11.5880
    11.6115  11.8580  11.8580  11.8910  11.9860  11.9860  11.9889  12.0428
    12.1345  12.1345  12.2276  12.3323  12.3323  12.4049  12.4049  12.6023
    12.6965  12.6965  12.8591  12.8591  13.0561  13.0561  13.1768  13.1768
    13.3219  13.3219  13.5316  13.7296  13.7296  13.8187  13.8707  13.8707
    14.0751  14.2914  14.3102  14.3959  14.4680  14.5745  14.5988  14.6281
    14.6281  14.6772  14.6772  14.7105  14.7330  14.8271  14.8271  14.9422
    15.0054  15.0054  15.0260  15.0609  15.0811  15.1480  15.1753  15.1753
    15.1841  15.2073  15.2202  15.2202  15.2927  15.2927  15.3134  15.3972
    15.4198  15.4198  15.4312  15.4491  15.5953  15.6268  15.7554  15.9044
    16.0383  16.0383  16.1030  16.1030  16.2182  16.2182  16.2526  16.2612
    16.3713  16.3713  16.3735  16.3854  16.3942  16.4289  16.5449  16.5654
    22.9664  23.1205  23.1207  23.7386  24.0516  24.0594  24.2087  24.8598
    24.8598  24.9447  24.9447  25.0189  25.1178  25.1178  25.4845  25.4845
    26.0659  26.0659  26.2230  26.3739  26.3739  26.5105  26.5105  26.5142
    26.5192  26.7841  26.8301  26.8301  26.8868  26.9214  27.0356  27.0504
    27.1289  27.3697  27.4368  27.4620  27.5494  27.6685  27.7736  27.8258
    28.1759  28.1901  28.2517  28.2517  28.3095  28.3095  28.3220  28.3678
    28.3678  28.5037  28.5342  28.5342  28.5466  28.5856  28.6672  28.7483
    28.7483  28.8839  28.9371  28.9371  29.0271  29.0271  29.0740  29.0974
    29.0974  29.3122  29.3486  29.3526  29.3526  29.3836  29.4292  29.5287
    29.5287  29.6180  29.6555  29.7656  29.8004  29.8004  29.8779  29.8779
    29.8949  30.1454  30.1454  30.2164  30.2237  30.2237  30.2402  30.4415
    30.4416  30.5883  30.6544  30.6810  30.6810  30.8957  30.9031  31.0078
    31.0078  31.1562  31.1562  31.2682  31.4075  31.4091  31.4091  31.6835
    31.6845  31.7170  31.7187  31.8836  31.8836  31.9088  31.9144  31.9702
    31.9710  32.0093  32.0627  32.1581  32.1581  32.2145  32.3468  32.4442
    32.4451  32.6350  32.6875  32.7038  32.7236  32.8365  32.8382  33.0530
    33.0695  33.1471  33.1482  33.2532  33.5468  33.7274  33.8107  33.8292
    33.8343  33.8572  33.9532  33.9667  34.2855  34.3128  34.3195  34.5218
    34.5824  34.8884

          k = 0.1250 0.3750 0.3750 ( 20162 PWs)   bands (ev):

    -0.9092  -0.6168  -0.6168  -0.3674  -0.0523   0.1422   0.1422   0.3202
     0.3527   0.5005   0.5005   0.6254   0.7261   0.7262   0.8260   0.8519
     0.9147   0.9350   0.9730   0.9730   1.0505   1.0505   1.0635   1.1101
     1.1462   1.1462   1.1484   1.1618   1.2100   1.2663   1.2663   1.2688
    11.0199  11.1286  11.4047  11.4047  11.4190  11.5364  11.5364  11.6654
    11.6867  11.7117  11.8500  11.8667  11.8854  11.8854  11.9125  11.9412
    11.9412  12.0076  12.0076  12.0690  12.3451  12.3551  12.3956  12.3956
    12.4618  12.5653  12.5653  12.8696  13.0192  13.1414  13.1414  13.4359
    13.4669  13.6317  13.7947  13.7947  13.9358  13.9358  13.9935  14.2245
    14.2564  14.2564  14.2976  14.3475  14.3475  14.4316  14.4983  14.5275
    14.6585  14.6585  14.6637  14.7960  14.7960  14.8376  14.8400  14.9626
    14.9689  14.9835  14.9835  15.1387  15.1522  15.1522  15.1746  15.1835
    15.1872  15.1982  15.1982  15.2545  15.2545  15.2628  15.2701  15.4053
    15.4351  15.4351  15.4590  15.4873  15.4873  15.4890  15.5422  15.6832
    16.0189  16.1374  16.1598  16.1598  16.1900  16.1900  16.2062  16.3185
    16.3414  16.3414  16.3594  16.4093  16.4859  16.4859  16.5127  16.6141
    23.4761  23.4894  23.5441  24.1933  24.1933  24.2105  24.2105  24.3869
    24.3869  24.5709  24.6526  24.7788  24.9439  25.2541  25.2541  25.3764
    25.7956  26.0180  26.1083  26.1464  26.1464  26.2082  26.2082  26.2901
    26.3803  26.3803  26.4804  26.5464  26.6278  26.6562  26.6991  26.6991
    27.3780  27.6134  27.7452  27.9152  27.9152  27.9363  27.9708  27.9708
    28.1102  28.1512  28.1512  28.2854  28.3177  28.3662  28.3662  28.4410
    28.4765  28.4765  28.5333  28.5786  28.6191  28.7606  28.7606  28.8670
    28.8967  29.0602  29.0602  29.0612  29.1539  29.2359  29.2552  29.4160
    29.4710  29.4710  29.5760  29.5760  29.6110  29.6404  29.6404  29.7578
    29.7580  29.7890  29.8051  29.8524  29.8524  29.9499  29.9499  29.9841
    30.2063  30.2265  30.2265  30.2952  30.3001  30.3322  30.3667  30.3667
    30.4938  30.5658  30.5658  30.6047  30.7340  30.7340  30.8190  30.8999
    30.9803  30.9804  31.2047  31.2731  31.2731  31.3804  31.4791  31.5118
    31.5292  31.5298  31.6527  31.6933  31.6933  31.7991  31.8705  31.9218
    31.9227  32.0488  32.1242  32.2429  32.2635  32.4123  32.4134  32.6548
    32.6778  32.6794  32.7033  32.7467  32.7572  32.7573  32.9015  32.9020
    32.9861  33.0944  33.0949  33.1115  33.3242  33.3280  33.4444  33.5349
    33.6022  33.7177  33.7268  33.8856  34.0111  34.1322  34.1428  34.1941
    34.2751  34.2974

          k = 0.3750 0.3750 0.3750 ( 20162 PWs)   bands (ev):

    -0.7622  -0.4990  -0.4990  -0.4990  -0.1731  -0.1731  -0.1731   0.0332
     0.7280   0.7280   0.7280   0.8571   0.8571   0.8571   0.8718   0.8996
     0.8996   0.8996   0.9021   0.9021   1.0853   1.0853   1.0853   1.0885
     1.0885   1.1235   1.1235   1.1235   1.1469   1.1676   1.1676   1.1676
    11.2322  11.2322  11.5266  11.5266  11.5266  11.5456  11.5456  11.5456
    11.6274  11.7152  11.7152  11.7594  11.7594  11.7594  11.8055  11.8055
    11.8055  12.0212  12.0212  12.0212  12.2934  12.3189  12.3189  12.3189
    12.3302  12.8881  12.8881  12.8881  13.4363  13.4363  13.4363  13.5947
    13.5947  13.5947  13.7547  13.7547  13.7547  13.8957  13.8957  13.9889
    14.0468  14.0468  14.0468  14.3132  14.3132  14.3132  14.4361  14.4361
    14.6393  14.6393  14.6393  14.7498  14.8187  14.8640  14.8640  14.8640
    14.8750  14.8750  14.8750  15.0656  15.0656  15.0657  15.1781  15.2432
    15.2517  15.2517  15.2769  15.2769  15.2769  15.2844  15.2844  15.2844
    15.4332  15.4332  15.4332  15.5129  15.5129  15.5129  15.5554  15.5554
    16.2354  16.2354  16.2354  16.3200  16.3200  16.3201  16.3771  16.3771
    16.4165  16.4165  16.4165  16.4868  16.4868  16.4868  16.5314  16.5314
    23.8443  23.8443  23.8493  24.3811  24.3811  24.3811  24.4533  24.4533
    24.4533  24.4611  24.4612  24.4612  24.8856  25.1165  25.1165  25.1165
    25.5799  25.5799  25.5799  25.6703  25.6703  25.6703  25.7968  25.8665
    25.8665  25.8665  25.9724  25.9724  26.2519  26.2520  26.2520  26.2800
    27.8931  28.2380  28.2380  28.3469  28.3469  28.3469  28.4165  28.5768
    28.5768  28.5768  28.5884  28.5884  28.5884  28.5925  28.5925  28.7584
    28.7584  28.7584  28.9357  28.9358  28.9358  29.0280  29.0280  29.0280
    29.1400  29.1400  29.2531  29.2531  29.2531  29.4001  29.4001  29.4001
    29.5069  29.5069  29.5069  29.5710  29.7472  29.7566  29.7566  29.7566
    29.9179  29.9179  29.9591  29.9591  29.9591  30.1633  30.1633  30.1633
    30.3787  30.3787  30.3993  30.3993  30.3993  30.5533  30.5533  30.5533
    30.6236  30.6236  30.6236  30.6705  30.6705  30.6705  30.8008  30.8008
    30.8008  30.9854  30.9854  30.9854  31.0409  31.0409  31.1353  31.1353
    31.1353  31.1666  31.6889  31.6890  31.6893  31.8164  31.8653  31.8658
    31.9595  31.9682  31.9684  31.9686  32.2679  32.2687  32.2690  32.3334
    32.3343  32.3733  32.3737  32.3743  32.5384  32.6083  32.6084  32.6097
    33.1144  33.1154  33.1171  33.1181  33.1187  33.1212  33.5129  33.5136
    33.7597  33.7611  33.7615  33.8653  33.8674  33.8813  33.9340  33.9360
    34.0243  34.0447

          k =-0.1250 0.1250 0.1250 ( 20110 PWs)   bands (ev):

    -1.2279  -0.3411  -0.3410  -0.3410   0.1173   0.1173   0.1173   0.3871
     0.3871   0.3871   0.6687   0.6687   0.6687   0.6790   0.7153   0.7153
     0.7153   0.7935   0.7936   0.7983   0.9181   0.9181   0.9181   1.2435
     1.2436   1.2511   1.3099   1.3099   1.3100   1.3116   1.3116   1.3117
    10.6400  10.6401  10.7168  11.2213  11.3811  11.3812  11.8338  11.8339
    11.8339  11.8429  11.8429  11.8430  12.0347  12.1987  12.1987  12.1987
    12.3454  12.3454  12.3454  12.4863  12.4864  12.4864  12.5288  12.5289
    12.5289  12.9629  12.9629  12.9629  13.0843  13.0843  13.0843  13.2408
    13.2409  13.2409  13.6648  13.6648  13.6648  13.9443  13.9443  13.9443
    14.0977  14.0977  14.0977  14.2353  14.2353  14.2353  14.2705  14.2705
    14.2705  14.4690  14.4690  14.4955  14.4955  14.4955  14.6112  14.7183
    14.7183  14.7183  14.9955  15.1702  15.1702  15.2789  15.2789  15.2790
    15.2970  15.2971  15.2971  15.3712  15.3713  15.4424  15.4738  15.4738
    15.4738  15.5596  15.5597  15.5597  15.6242  15.6242  16.0720  16.0721
    16.0721  16.0998  16.0998  16.0999  16.2799  16.2904  16.2905  16.2905
    16.3774  16.3945  16.3945  16.3946  16.4602  16.4603  16.6597  16.6597
    22.5377  22.5379  22.5512  23.5892  24.6570  24.6570  24.6570  24.8667
    24.8667  24.8668  24.8770  24.8770  24.8770  25.2926  25.2926  25.2926
    26.0098  26.1311  26.4370  26.4371  26.4371  26.5077  26.6277  26.6277
    26.9181  26.9181  26.9181  26.9944  26.9944  26.9944  27.1352  27.1352
    27.4652  27.4652  27.4652  27.7493  27.7494  27.7494  27.8231  27.8231
    27.9362  27.9362  27.9362  28.0772  28.0773  28.0773  28.1924  28.3803
    28.3803  28.3803  28.6429  28.7560  28.7560  28.7560  28.7653  28.7654
    29.0588  29.0588  29.0588  29.0991  29.0991  29.0991  29.1515  29.1515
    29.2499  29.2500  29.2500  29.4764  29.4765  29.4765  29.4954  29.4954
    29.4955  29.6056  29.6057  29.6057  29.7068  29.7068  29.7068  29.7504
    29.9185  29.9186  30.0888  30.0889  30.0889  30.1170  30.1170  30.1170
    30.4018  30.4018  30.4018  30.4184  30.4184  30.4184  30.8633  30.8633
    30.8633  30.9405  30.9405  30.9405  31.1784  31.1784  31.1784  31.7036
    31.7038  31.7042  31.7055  31.7792  31.7795  31.7796  31.7801  31.7804
    31.9078  32.0435  32.0438  32.1276  32.1280  32.1282  32.4019  32.4026
    32.4034  32.7977  32.7978  32.7979  32.8375  32.8380  32.8388  33.0426
    33.0435  33.0439  33.5705  33.5706  33.5748  33.9269  33.9269  33.9890
    33.9969  34.0013  34.0712  34.2411  34.2417  34.2456  34.3934  34.3932
    34.3987  35.1986

          k =-0.1250 0.3750 0.1250 ( 20152 PWs)   bands (ev):

    -1.0651  -0.7571  -0.2368  -0.2368   0.0366   0.0366   0.2715   0.2715
     0.4017   0.4850   0.4851   0.5391   0.6002   0.7043   0.7528   0.7560
     0.7779   0.8619   0.9165   0.9788   0.9788   1.0541   1.1077   1.1077
     1.2014   1.2014   1.2452   1.2452   1.2629   1.2670   1.2904   1.2929
    10.8626  10.9172  11.0610  11.3257  11.3885  11.5271  11.5561  11.5880
    11.6115  11.8579  11.8580  11.8910  11.9860  11.9860  11.9889  12.0428
    12.1345  12.1346  12.2276  12.3322  12.3323  12.4049  12.4050  12.6023
    12.6965  12.6966  12.8591  12.8592  13.0561  13.0561  13.1768  13.1768
    13.3219  13.3220  13.5316  13.7296  13.7296  13.8188  13.8707  13.8707
    14.0751  14.2915  14.3102  14.3959  14.4679  14.5745  14.5987  14.6281
    14.6281  14.6772  14.6772  14.7105  14.7329  14.8271  14.8271  14.9421
    15.0054  15.0054  15.0260  15.0609  15.0811  15.1480  15.1753  15.1753
    15.1841  15.2074  15.2202  15.2202  15.2927  15.2927  15.3134  15.3972
    15.4198  15.4199  15.4312  15.4490  15.5954  15.6269  15.7554  15.9045
    16.0383  16.0383  16.1030  16.1031  16.2182  16.2183  16.2527  16.2612
    16.3712  16.3713  16.3736  16.3854  16.3941  16.4289  16.5448  16.5654
    22.9664  23.1205  23.1206  23.7386  24.0515  24.0595  24.2087  24.8598
    24.8598  24.9447  24.9448  25.0189  25.1178  25.1179  25.4844  25.4845
    26.0659  26.0659  26.2230  26.3738  26.3739  26.5104  26.5104  26.5143
    26.5192  26.7840  26.8301  26.8302  26.8868  26.9214  27.0356  27.0505
    27.1289  27.3697  27.4367  27.4620  27.5494  27.6684  27.7737  27.8258
    28.1759  28.1901  28.2517  28.2517  28.3094  28.3095  28.3221  28.3678
    28.3678  28.5037  28.5342  28.5342  28.5466  28.5856  28.6672  28.7483
    28.7483  28.8839  28.9370  28.9371  29.0271  29.0271  29.0739  29.0975
    29.0975  29.3123  29.3486  29.3526  29.3527  29.3836  29.4291  29.5287
    29.5287  29.6180  29.6555  29.7656  29.8004  29.8004  29.8779  29.8779
    29.8949  30.1454  30.1455  30.2164  30.2236  30.2237  30.2403  30.4416
    30.4416  30.5883  30.6544  30.6810  30.6810  30.8957  30.9031  31.0078
    31.0078  31.1561  31.1562  31.2683  31.4074  31.4091  31.4091  31.6841
    31.6842  31.7168  31.7185  31.8832  31.8840  31.9109  31.9148  31.9712
    31.9720  32.0091  32.0627  32.1582  32.1585  32.2142  32.3474  32.4435
    32.4453  32.6341  32.6849  32.7039  32.7234  32.8392  32.8398  33.0523
    33.0688  33.1500  33.1503  33.2516  33.5470  33.7276  33.8132  33.8310
    33.8337  33.8529  33.9648  33.9921  34.3118  34.3242  34.3484  34.5251
    34.5682  34.8785

          k = 0.1250-0.3750 0.1250 ( 20152 PWs)   bands (ev):

    -1.0651  -0.7571  -0.2368  -0.2368   0.0366   0.0366   0.2715   0.2715
     0.4017   0.4850   0.4851   0.5391   0.6001   0.7044   0.7527   0.7561
     0.7779   0.8619   0.9165   0.9788   0.9788   1.0541   1.1077   1.1077
     1.2014   1.2014   1.2452   1.2452   1.2630   1.2669   1.2905   1.2928
    10.8626  10.9172  11.0609  11.3257  11.3884  11.5272  11.5561  11.5881
    11.6116  11.8580  11.8580  11.8910  11.9860  11.9860  11.9889  12.0427
    12.1345  12.1345  12.2276  12.3323  12.3323  12.4049  12.4049  12.6023
    12.6966  12.6966  12.8592  12.8592  13.0561  13.0561  13.1768  13.1768
    13.3220  13.3220  13.5316  13.7296  13.7296  13.8188  13.8707  13.8707
    14.0751  14.2915  14.3101  14.3959  14.4679  14.5745  14.5988  14.6281
    14.6281  14.6772  14.6772  14.7105  14.7330  14.8271  14.8271  14.9421
    15.0054  15.0054  15.0260  15.0609  15.0811  15.1480  15.1753  15.1753
    15.1841  15.2073  15.2202  15.2202  15.2926  15.2927  15.3134  15.3973
    15.4199  15.4199  15.4312  15.4491  15.5953  15.6269  15.7554  15.9045
    16.0383  16.0383  16.1031  16.1031  16.2183  16.2183  16.2526  16.2612
    16.3713  16.3713  16.3736  16.3853  16.3942  16.4289  16.5449  16.5654
    22.9664  23.1205  23.1207  23.7386  24.0516  24.0594  24.2087  24.8598
    24.8598  24.9447  24.9447  25.0189  25.1179  25.1179  25.4845  25.4845
    26.0659  26.0659  26.2231  26.3739  26.3739  26.5104  26.5104  26.5142
    26.5192  26.7840  26.8301  26.8301  26.8868  26.9215  27.0356  27.0504
    27.1290  27.3697  27.4368  27.4620  27.5494  27.6684  27.7737  27.8258
    28.1759  28.1902  28.2517  28.2517  28.3094  28.3094  28.3221  28.3678
    28.3678  28.5037  28.5343  28.5343  28.5466  28.5856  28.6672  28.7483
    28.7483  28.8838  28.9371  28.9371  29.0271  29.0271  29.0739  29.0974
    29.0974  29.3122  29.3486  29.3526  29.3526  29.3836  29.4291  29.5288
    29.5288  29.6180  29.6555  29.7656  29.8004  29.8004  29.8779  29.8779
    29.8950  30.1454  30.1454  30.2164  30.2236  30.2237  30.2402  30.4416
    30.4416  30.5883  30.6544  30.6810  30.6810  30.8957  30.9031  31.0078
    31.0078  31.1561  31.1561  31.2682  31.4074  31.4091  31.4091  31.6836
    31.6836  31.7170  31.7185  31.8828  31.8831  31.9090  31.9141  31.9702
    31.9718  32.0086  32.0631  32.1586  32.1587  32.2149  32.3468  32.4433
    32.4443  32.6343  32.6844  32.7039  32.7223  32.8368  32.8400  33.0524
    33.0691  33.1486  33.1486  33.2525  33.5445  33.7284  33.8106  33.8285
    33.8296  33.8312  33.9489  33.9547  34.2921  34.3074  34.3384  34.5145
    34.5802  34.8842

          k =-0.1250 0.3750 0.3750 ( 20162 PWs)   bands (ev):

    -0.9092  -0.6168  -0.6168  -0.3674  -0.0523   0.1422   0.1422   0.3202
     0.3527   0.5005   0.5005   0.6254   0.7261   0.7261   0.8260   0.8519
     0.9146   0.9350   0.9730   0.9730   1.0505   1.0505   1.0635   1.1101
     1.1462   1.1462   1.1484   1.1618   1.2100   1.2663   1.2663   1.2688
    11.0199  11.1287  11.4047  11.4047  11.4190  11.5364  11.5364  11.6654
    11.6867  11.7117  11.8499  11.8668  11.8854  11.8854  11.9125  11.9412
    11.9412  12.0076  12.0076  12.0690  12.3451  12.3552  12.3956  12.3956
    12.4618  12.5653  12.5653  12.8696  13.0192  13.1414  13.1414  13.4360
    13.4669  13.6317  13.7948  13.7948  13.9358  13.9358  13.9935  14.2245
    14.2564  14.2564  14.2976  14.3474  14.3475  14.4315  14.4983  14.5275
    14.6585  14.6585  14.6637  14.7960  14.7960  14.8375  14.8400  14.9626
    14.9689  14.9835  14.9835  15.1387  15.1522  15.1522  15.1746  15.1834
    15.1873  15.1982  15.1982  15.2544  15.2545  15.2628  15.2700  15.4052
    15.4351  15.4351  15.4590  15.4873  15.4873  15.4889  15.5422  15.6833
    16.0190  16.1374  16.1598  16.1598  16.1901  16.1901  16.2063  16.3184
    16.3413  16.3413  16.3594  16.4093  16.4859  16.4859  16.5128  16.6141
    23.4761  23.4894  23.5441  24.1932  24.1932  24.2106  24.2106  24.3869
    24.3869  24.5709  24.6526  24.7788  24.9439  25.2541  25.2541  25.3764
    25.7955  26.0180  26.1084  26.1465  26.1465  26.2080  26.2080  26.2899
    26.3803  26.3803  26.4805  26.5464  26.6279  26.6563  26.6991  26.6991
    27.3780  27.6133  27.7452  27.9152  27.9152  27.9363  27.9708  27.9708
    28.1102  28.1512  28.1512  28.2855  28.3177  28.3663  28.3663  28.4410
    28.4765  28.4765  28.5333  28.5786  28.6191  28.7606  28.7606  28.8669
    28.8967  29.0602  29.0602  29.0612  29.1538  29.2359  29.2553  29.4160
    29.4710  29.4710  29.5760  29.5760  29.6109  29.6404  29.6404  29.7578
    29.7580  29.7890  29.8051  29.8524  29.8524  29.9499  29.9499  29.9841
    30.2063  30.2265  30.2265  30.2952  30.3001  30.3322  30.3667  30.3667
    30.4938  30.5658  30.5658  30.6047  30.7340  30.7340  30.8191  30.8998
    30.9803  30.9803  31.2048  31.2731  31.2732  31.3804  31.4795  31.5111
    31.5296  31.5300  31.6530  31.6930  31.6935  31.7995  31.8707  31.9221
    31.9222  32.0482  32.1247  32.2429  32.2627  32.4119  32.4119  32.6562
    32.6782  32.6806  32.7040  32.7469  32.7569  32.7570  32.9039  32.9044
    32.9853  33.0952  33.0960  33.1105  33.3251  33.3260  33.4444  33.5365
    33.5991  33.7188  33.7201  33.8904  34.0090  34.1255  34.1474  34.1897
    34.2648  34.2999

          k = 0.1250 0.3750-0.3750 ( 20162 PWs)   bands (ev):

    -0.9092  -0.6169  -0.6168  -0.3674  -0.0524   0.1422   0.1422   0.3202
     0.3528   0.5004   0.5005   0.6254   0.7261   0.7262   0.8260   0.8519
     0.9147   0.9349   0.9730   0.9730   1.0505   1.0505   1.0634   1.1102
     1.1462   1.1462   1.1483   1.1619   1.2100   1.2663   1.2663   1.2688
    11.0200  11.1286  11.4046  11.4046  11.4189  11.5364  11.5364  11.6654
    11.6867  11.7117  11.8499  11.8668  11.8854  11.8854  11.9125  11.9412
    11.9413  12.0076  12.0076  12.0690  12.3451  12.3551  12.3956  12.3956
    12.4618  12.5653  12.5653  12.8696  13.0191  13.1414  13.1414  13.4360
    13.4668  13.6317  13.7948  13.7948  13.9358  13.9359  13.9935  14.2245
    14.2564  14.2564  14.2975  14.3474  14.3474  14.4316  14.4983  14.5274
    14.6586  14.6586  14.6637  14.7960  14.7960  14.8376  14.8400  14.9626
    14.9689  14.9835  14.9835  15.1387  15.1522  15.1522  15.1747  15.1835
    15.1873  15.1982  15.1982  15.2544  15.2544  15.2629  15.2700  15.4052
    15.4351  15.4351  15.4590  15.4873  15.4873  15.4890  15.5423  15.6833
    16.0190  16.1374  16.1598  16.1598  16.1901  16.1901  16.2062  16.3185
    16.3414  16.3414  16.3593  16.4093  16.4859  16.4859  16.5127  16.6141
    23.4762  23.4894  23.5440  24.1932  24.1933  24.2105  24.2105  24.3869
    24.3869  24.5709  24.6526  24.7789  24.9438  25.2541  25.2541  25.3764
    25.7956  26.0181  26.1084  26.1464  26.1464  26.2080  26.2081  26.2900
    26.3802  26.3803  26.4804  26.5464  26.6278  26.6563  26.6991  26.6991
    27.3780  27.6134  27.7452  27.9152  27.9152  27.9363  27.9708  27.9708
    28.1102  28.1512  28.1512  28.2855  28.3177  28.3662  28.3662  28.4409
    28.4765  28.4765  28.5333  28.5786  28.6192  28.7606  28.7606  28.8669
    28.8968  29.0602  29.0602  29.0612  29.1538  29.2358  29.2552  29.4160
    29.4711  29.4711  29.5760  29.5760  29.6109  29.6404  29.6405  29.7578
    29.7580  29.7889  29.8051  29.8525  29.8525  29.9499  29.9499  29.9841
    30.2063  30.2265  30.2265  30.2952  30.3001  30.3322  30.3668  30.3668
    30.4937  30.5658  30.5659  30.6047  30.7340  30.7340  30.8191  30.8998
    30.9803  30.9804  31.2047  31.2731  31.2732  31.3804  31.4792  31.5112
    31.5296  31.5302  31.6524  31.6928  31.6935  31.7993  31.8706  31.9217
    31.9227  32.0483  32.1251  32.2432  32.2625  32.4124  32.4127  32.6570
    32.6786  32.6797  32.7037  32.7461  32.7561  32.7569  32.9039  32.9040
    32.9880  33.0960  33.0991  33.1108  33.3235  33.3258  33.4463  33.5390
    33.5981  33.7171  33.7203  33.8884  34.0107  34.1280  34.1619  34.1918
    34.2738  34.2997

          k =-0.3750 0.3750 0.3750 ( 20162 PWs)   bands (ev):

    -0.7622  -0.4991  -0.4990  -0.4990  -0.1731  -0.1731  -0.1731   0.0332
     0.7280   0.7280   0.7280   0.8570   0.8570   0.8571   0.8719   0.8996
     0.8997   0.8997   0.9020   0.9021   1.0853   1.0854   1.0854   1.0884
     1.0885   1.1235   1.1235   1.1235   1.1470   1.1676   1.1676   1.1677
    11.2322  11.2323  11.5265  11.5266  11.5266  11.5456  11.5456  11.5456
    11.6273  11.7152  11.7153  11.7594  11.7595  11.7595  11.8055  11.8055
    11.8055  12.0212  12.0212  12.0213  12.2934  12.3189  12.3189  12.3190
    12.3301  12.8881  12.8881  12.8881  13.4363  13.4363  13.4363  13.5947
    13.5947  13.5947  13.7547  13.7547  13.7547  13.8956  13.8957  13.9889
    14.0468  14.0468  14.0468  14.3132  14.3132  14.3132  14.4360  14.4361
    14.6392  14.6393  14.6393  14.7499  14.8187  14.8640  14.8640  14.8640
    14.8750  14.8750  14.8750  15.0656  15.0656  15.0657  15.1780  15.2433
    15.2517  15.2517  15.2768  15.2769  15.2769  15.2843  15.2843  15.2843
    15.4331  15.4332  15.4332  15.5128  15.5129  15.5129  15.5554  15.5555
    16.2354  16.2354  16.2354  16.3200  16.3200  16.3201  16.3770  16.3771
    16.4166  16.4166  16.4166  16.4868  16.4868  16.4868  16.5313  16.5314
    23.8443  23.8444  23.8492  24.3810  24.3810  24.3810  24.4533  24.4533
    24.4534  24.4612  24.4612  24.4612  24.8857  25.1164  25.1165  25.1165
    25.5798  25.5799  25.5799  25.6703  25.6704  25.6704  25.7969  25.8665
    25.8665  25.8665  25.9724  25.9725  26.2520  26.2520  26.2521  26.2799
    27.8931  28.2379  28.2380  28.3469  28.3469  28.3470  28.4165  28.5768
    28.5768  28.5768  28.5883  28.5883  28.5883  28.5925  28.5925  28.7584
    28.7584  28.7584  28.9358  28.9358  28.9358  29.0279  29.0279  29.0280
    29.1399  29.1399  29.2531  29.2531  29.2532  29.4001  29.4002  29.4002
    29.5069  29.5069  29.5069  29.5711  29.7472  29.7566  29.7566  29.7566
    29.9179  29.9179  29.9591  29.9591  29.9591  30.1633  30.1633  30.1633
    30.3787  30.3787  30.3993  30.3993  30.3993  30.5533  30.5533  30.5533
    30.6236  30.6236  30.6237  30.6705  30.6705  30.6705  30.8008  30.8008
    30.8008  30.9854  30.9855  30.9855  31.0408  31.0409  31.1353  31.1353
    31.1353  31.1665  31.6889  31.6895  31.6897  31.8156  31.8645  31.8656
    31.9598  31.9689  31.9691  31.9693  32.2670  32.2671  32.2676  32.3327
    32.3339  32.3733  32.3740  32.3749  32.5389  32.6081  32.6083  32.6094
    33.1123  33.1149  33.1158  33.1191  33.1193  33.1201  33.5096  33.5136
    33.7570  33.7574  33.7583  33.8687  33.8690  33.8860  33.9334  33.9374
    34.0327  34.0706

     the Fermi energy is    31.2089 ev

!    total energy              =   -1334.85456289 Ry
     estimated scf accuracy    <       0.00002429 Ry
     smearing contrib. (-TS)   =      -0.01762355 Ry
     internal energy E=F+TS    =   -1334.83693934 Ry

     The total energy is F=E-TS. E is the sum of the following terms:
     one-electron contribution =     713.55544089 Ry
     hartree contribution      =     259.88623212 Ry
     xc contribution           =    -572.66721255 Ry
     ewald contribution        =   -1735.61139980 Ry

     convergence has been achieved in  19 iterations

     Forces acting on atoms (cartesian axes, Ry/au):

     atom    1 type  1   force =    -0.00002349   -0.00002349   -0.00002349
     atom    2 type  1   force =     0.00002349    0.00002349    0.00002349
     atom    3 type  1   force =    -0.00000509   -0.00000971   -0.00000509
     atom    4 type  1   force =     0.00000509    0.00000971    0.00000509
     atom    5 type  1   force =    -0.00000971   -0.00000509   -0.00000509
     atom    6 type  1   force =     0.00000971    0.00000509    0.00000509
     atom    7 type  1   force =    -0.00000509   -0.00000509   -0.00000971
     atom    8 type  1   force =     0.00000509    0.00000509    0.00000971
     atom    9 type  1   force =     0.00000000    0.00000000    0.00000000
     atom   10 type  1   force =     0.00000047   -0.00000047    0.00000000
     atom   11 type  1   force =    -0.00000047    0.00000047   -0.00000000
     atom   12 type  1   force =    -0.00000047    0.00000000    0.00000047
     atom   13 type  1   force =     0.00000047    0.00000000   -0.00000047
     atom   14 type  1   force =     0.00000000    0.00000047   -0.00000047
     atom   15 type  1   force =    -0.00000000   -0.00000047    0.00000047
     atom   16 type  1   force =     0.00000000    0.00000000    0.00000000
     atom   17 type  1   force =    -0.00000129   -0.00000129   -0.00000878
     atom   18 type  1   force =     0.00000129    0.00000129    0.00000878
     atom   19 type  1   force =     0.00000129    0.00000878    0.00000129
     atom   20 type  1   force =    -0.00000129   -0.00000878   -0.00000129
     atom   21 type  1   force =     0.00000000    0.00000000    0.00000000
     atom   22 type  1   force =    -0.00000878   -0.00000129   -0.00000129
     atom   23 type  1   force =     0.00000878    0.00000129    0.00000129
     atom   24 type  1   force =     0.00000000    0.00000000    0.00000000
     atom   25 type  1   force =     0.00000000    0.00000000    0.00000000
     atom   26 type  1   force =    -0.00000206    0.00000206   -0.00000000
     atom   27 type  1   force =     0.00000206   -0.00000206    0.00000000
     atom   28 type  1   force =     0.00000206    0.00000000   -0.00000206
     atom   29 type  1   force =    -0.00000206   -0.00000000    0.00000206
     atom   30 type  1   force =    -0.00000000   -0.00000206    0.00000206
     atom   31 type  1   force =     0.00000000    0.00000206   -0.00000206
     atom   32 type  1   force =    -0.00000000   -0.00000000    0.00000000
     atom   33 type  1   force =     0.00000449    0.00000449    0.00000385
     atom   34 type  1   force =    -0.00000449   -0.00000449   -0.00000385
     atom   35 type  1   force =    -0.00000449   -0.00000385   -0.00000449
     atom   36 type  1   force =     0.00000449    0.00000385    0.00000449
     atom   37 type  1   force =     0.00000000   -0.00000000    0.00000000
     atom   38 type  1   force =     0.00000385    0.00000449    0.00000449
     atom   39 type  1   force =    -0.00000385   -0.00000449   -0.00000449
     atom   40 type  1   force =     0.00000000    0.00000000    0.00000000
     atom   41 type  1   force =    -0.19206623    0.00002203    0.00002203
     atom   42 type  1   force =     0.19206623   -0.00002203   -0.00002203
     atom   43 type  1   force =     0.19205964    0.00000773    0.00001087
     atom   44 type  1   force =    -0.19205964   -0.00000773   -0.00001087
     atom   45 type  1   force =     0.19205078    0.00001087    0.00001087
     atom   46 type  1   force =    -0.19205078   -0.00001087   -0.00001087
     atom   47 type  1   force =    -0.19207120    0.00002065    0.00002093
     atom   48 type  1   force =     0.19207120   -0.00002065   -0.00002093
     atom   49 type  1   force =     0.00002203   -0.19206623    0.00002203
     atom   50 type  1   force =    -0.00002203    0.19206623   -0.00002203
     atom   51 type  1   force =     0.00001087    0.19205964    0.00000773
     atom   52 type  1   force =    -0.00001087   -0.19205964   -0.00000773
     atom   53 type  1   force =     0.00001087    0.19205078    0.00001087
     atom   54 type  1   force =    -0.00001087   -0.19205078   -0.00001087
     atom   55 type  1   force =     0.00002093   -0.19207120    0.00002065
     atom   56 type  1   force =    -0.00002093    0.19207120   -0.00002065
     atom   57 type  1   force =     0.00002203    0.00002203   -0.19206623
     atom   58 type  1   force =    -0.00002203   -0.00002203    0.19206623
     atom   59 type  1   force =     0.00000773    0.00001087    0.19205964
     atom   60 type  1   force =    -0.00000773   -0.00001087   -0.19205964
     atom   61 type  1   force =     0.00001087    0.00001087    0.19205078
     atom   62 type  1   force =    -0.00001087   -0.00001087   -0.19205078
     atom   63 type  1   force =     0.00002065    0.00002093   -0.19207120
     atom   64 type  1   force =    -0.00002065   -0.00002093    0.19207120
     atom   65 type  1   force =    -0.00000773   -0.19205964   -0.00001087
     atom   66 type  1   force =     0.00000773    0.19205964    0.00001087
     atom   67 type  1   force =    -0.00002065    0.19207120   -0.00002093
     atom   68 type  1   force =     0.00002065   -0.19207120    0.00002093
     atom   69 type  1   force =     0.19207120   -0.00002093   -0.00002065
     atom   70 type  1   force =    -0.19207120    0.00002093    0.00002065
     atom   71 type  1   force =    -0.19205964   -0.00001087   -0.00000773
     atom   72 type  1   force =     0.19205964    0.00001087    0.00000773
     atom   73 type  1   force =    -0.00002093   -0.00002065    0.19207120
     atom   74 type  1   force =     0.00002093    0.00002065   -0.19207120
     atom   75 type  1   force =    -0.00001087   -0.00000773   -0.19205964
     atom   76 type  1   force =     0.00001087    0.00000773    0.19205964
     atom   77 type  1   force =    -0.19207081    0.00001335    0.00001335
     atom   78 type  1   force =     0.19207081   -0.00001335   -0.00001335
     atom   79 type  1   force =     0.19205829   -0.00000220   -0.00000220
     atom   80 type  1   force =    -0.19205829    0.00000220    0.00000220
     atom   81 type  1   force =    -0.00000220   -0.00000220    0.19205829
     atom   82 type  1   force =     0.00000220    0.00000220   -0.19205829
     atom   83 type  1   force =     0.00001335    0.00001335   -0.19207081
     atom   84 type  1   force =    -0.00001335   -0.00001335    0.19207081
     atom   85 type  1   force =     0.00000220   -0.19205829    0.00000220
     atom   86 type  1   force =    -0.00000220    0.19205829   -0.00000220
     atom   87 type  1   force =    -0.00001335    0.19207081   -0.00001335
     atom   88 type  1   force =     0.00001335   -0.19207081    0.00001335
     atom   89 type  2   force =     0.31638116    0.31638116    0.31638116
     atom   90 type  2   force =    -0.31638116   -0.31638116   -0.31638116
     atom   91 type  2   force =    -0.31639437   -0.31639972    0.31642737
     atom   92 type  2   force =     0.31639437    0.31639972   -0.31642737
     atom   93 type  2   force =    -0.31639972    0.31642737   -0.31639437
     atom   94 type  2   force =     0.31639972   -0.31642737    0.31639437
     atom   95 type  2   force =     0.31642737   -0.31639437   -0.31639972
     atom   96 type  2   force =    -0.31642737    0.31639437    0.31639972
     atom   97 type  2   force =     0.31639972    0.31639437   -0.31642737
     atom   98 type  2   force =    -0.31639972   -0.31639437    0.31642737
     atom   99 type  2   force =     0.31639437   -0.31642737    0.31639972
     atom  100 type  2   force =    -0.31639437    0.31642737   -0.31639972
     atom  101 type  2   force =    -0.31642737    0.31639972    0.31639437
     atom  102 type  2   force =     0.31642737   -0.31639972   -0.31639437
     atom  103 type  2   force =     0.31639156    0.31639146    0.31639146
     atom  104 type  2   force =    -0.31639156   -0.31639146   -0.31639146
     atom  105 type  2   force =    -0.31639632   -0.31639632    0.31642613
     atom  106 type  2   force =     0.31639632    0.31639632   -0.31642613
     atom  107 type  2   force =    -0.31639647    0.31641532   -0.31639647
     atom  108 type  2   force =     0.31639647   -0.31641532    0.31639647
     atom  109 type  2   force =     0.31639647    0.31639647   -0.31641532
     atom  110 type  2   force =    -0.31639647   -0.31639647    0.31641532
     atom  111 type  2   force =     0.31639632   -0.31642613    0.31639632
     atom  112 type  2   force =    -0.31639632    0.31642613   -0.31639632
     atom  113 type  2   force =     0.31639146    0.31639156    0.31639146
     atom  114 type  2   force =    -0.31639146   -0.31639156   -0.31639146
     atom  115 type  2   force =     0.31642613   -0.31639632   -0.31639632
     atom  116 type  2   force =    -0.31642613    0.31639632    0.31639632
     atom  117 type  2   force =    -0.31641532    0.31639647    0.31639647
     atom  118 type  2   force =     0.31641532   -0.31639647   -0.31639647
     atom  119 type  2   force =     0.31639146    0.31639146    0.31639156
     atom  120 type  2   force =    -0.31639146   -0.31639146   -0.31639156

     Total force =     3.373603     Total SCF correction =     0.017434


     Computing stress (Cartesian axis) and pressure

          total   stress  (Ry/bohr**3)                   (kbar)     P=    12966.72
   0.08814597  -0.00000007  -0.00000007        12966.72       -0.01       -0.01
  -0.00000007   0.08814597  -0.00000007           -0.01    12966.72       -0.01
  -0.00000007  -0.00000007   0.08814597           -0.01       -0.01    12966.72


     BFGS Geometry Optimization
     Energy error            =      0.0E+00 Ry
     Gradient error          =      3.2E-01 Ry/Bohr
     Cell gradient error     =      1.3E+04 kbar

     number of scf cycles    =   1
     number of bfgs steps    =   0

     enthalpy           new  =   -1334.8545628895 Ry

     new trust radius        =       0.5000000000 bohr
     new conv_thr            =       0.0001000000 Ry

     new unit-cell volume =   3830.46537 a.u.^3 (   567.61640 Ang^3 )
     density =      8.44392 g/cm^3

CELL_PARAMETERS (angstrom)
   8.279770763  -0.000000258  -0.000000258
  -0.000000258   8.279770763  -0.000000258
  -0.000000258  -0.000000258   8.279770763

ATOMIC_POSITIONS (angstrom)
Al            1.0349710278        1.0349710278        1.0349710278
Al            7.2447992198        7.2447992198        7.2447992198
Al            5.1748564787        1.0349709186        5.1748564787
Al            3.1049137688        7.2447993290        3.1049137688
Al            1.0349709186        5.1748564787        5.1748564787
Al            7.2447993290        3.1049137688        3.1049137688
Al            5.1748564787        5.1748564787        1.0349709186
Al            3.1049137688        3.1049137688        7.2447993290
Al            4.1398851238        4.1398851238        4.1398851238
Al            2.0699425025        6.2098280028       -0.0000002577
Al            6.2098280028        2.0699425025       -0.0000002577
Al            6.2098280028       -0.0000002577        2.0699425025
Al            2.0699425025       -0.0000002577        6.2098280028
Al           -0.0000002577        2.0699425025        6.2098280028
Al           -0.0000002577        6.2098280028        2.0699425025
Al            4.1398853815       -0.0000001289       -0.0000001289
Al            2.0699424836        2.0699424836        4.1398851580
Al            6.2098277640        6.2098277640        4.1398850896
Al            6.2098277640        4.1398850896        6.2098277640
Al            2.0699424836        4.1398851580        2.0699424836
Al           -0.0000001289        4.1398853815       -0.0000001289
Al            4.1398851580        2.0699424836        2.0699424836
Al            4.1398850896        6.2098277640        6.2098277640
Al           -0.0000001289       -0.0000001289        4.1398853815
Al            0.0000000000        0.0000000000        0.0000000000
Al            6.2098278568        2.0699423908        4.1398851238
Al            2.0699423908        6.2098278568        4.1398851238
Al            2.0699423908        4.1398851238        6.2098278568
Al            6.2098278568        4.1398851238        2.0699423908
Al            4.1398851238        6.2098278568        2.0699423908
Al            4.1398851238        2.0699423908        6.2098278568
Al           -0.0000002577        4.1398852526        4.1398852526
Al            6.2098279273        6.2098279273       -0.0000003451
Al            2.0699425780        2.0699425780       -0.0000001703
Al            2.0699425780       -0.0000001703        2.0699425780
Al            6.2098279273       -0.0000003451        6.2098279273
Al            4.1398852526       -0.0000002577        4.1398852526
Al           -0.0000003451        6.2098279273        6.2098279273
Al           -0.0000001703        2.0699425780        2.0699425780
Al            4.1398852526        4.1398852526       -0.0000002577
Al            7.2592885050        1.0349713246        1.0349713246
Al            1.0204817426        7.2447989229        7.2447989229
Al            7.2303100015        1.0349710426        5.1748565867
Al            1.0494602460        7.2447992050        3.1049136608
Al            3.0904243956        5.1748565868        5.1748565868
Al            5.1893458519        3.1049136608        3.1049136608
Al            3.1194029410        5.1748568201        1.0349713128
Al            5.1603673065        3.1049134274        7.2447989347
Al            1.0349713246        7.2592885050        1.0349713246
Al            7.2447989229        1.0204817426        7.2447989229
Al            5.1748565867        7.2303100015        1.0349710426
Al            3.1049136608        1.0494602460        7.2447992050
Al            5.1748565868        3.0904243956        5.1748565868
Al            3.1049136608        5.1893458519        3.1049136608
Al            1.0349713128        3.1194029410        5.1748568201
Al            7.2447989347        5.1603673065        3.1049134274
Al            1.0349713246        1.0349713246        7.2592885050
Al            7.2447989229        7.2447989229        1.0204817426
Al            1.0349710426        5.1748565867        7.2303100015
Al            7.2447992050        3.1049136608        1.0494602460
Al            5.1748565868        5.1748565868        3.0904243956
Al            3.1049136608        3.1049136608        5.1893458519
Al            5.1748568201        1.0349713128        3.1194029410
Al            3.1049134274        7.2447989347        5.1603673065
Al            7.2447992050        1.0494602460        3.1049136608
Al            1.0349710426        7.2303100015        5.1748565867
Al            3.1049134274        5.1603673065        7.2447989347
Al            5.1748568201        3.1194029410        1.0349713128
Al            5.1603673065        7.2447989347        3.1049134274
Al            3.1194029410        1.0349713128        5.1748568201
Al            1.0494602460        3.1049136608        7.2447992050
Al            7.2303100015        5.1748565867        1.0349710426
Al            7.2447989347        3.1049134274        5.1603673065
Al            1.0349713128        5.1748568201        3.1194029410
Al            3.1049136608        7.2447992050        1.0494602460
Al            5.1748565867        1.0349710426        7.2303100015
Al            7.2592881979        5.1748564838        5.1748564838
Al            1.0204820496        3.1049137638        3.1049137638
Al            3.0904247344        1.0349711932        1.0349711932
Al            5.1893455132        7.2447990543        7.2447990543
Al            1.0349711932        1.0349711932        3.0904247344
Al            7.2447990543        7.2447990543        5.1893455132
Al            5.1748564838        5.1748564838        7.2592881979
Al            3.1049137638        3.1049137638        1.0204820496
Al            7.2447990543        5.1893455132        7.2447990543
Al            1.0349711932        3.0904247344        1.0349711932
Al            3.1049137638        1.0204820496        3.1049137638
Al            5.1748564838        7.2592881979        5.1748564838
O             2.1290750886        2.1290750886        2.1290750886
O             6.1506951589        6.1506951589        6.1506951589
O             4.0807522577        8.2206377103        6.2689607178
O             4.1990179898        0.0591325372        2.0108095297
O             8.2206377103        6.2689607178        4.0807522577
O             0.0591325372        2.0108095297        4.1990179898
O             6.2689607178        4.0807522577        8.2206377103
O             2.0108095297        4.1990179898        0.0591325372
O             0.0591325372        4.1990179898        2.0108095297
O             8.2206377103        4.0807522577        6.2689607178
O             4.1990179898        2.0108095297        0.0591325372
O             4.0807522577        6.2689607178        8.2206377103
O             2.0108095297        0.0591325372        4.1990179898
O             6.2689607178        8.2206377103        4.0807522577
O             2.1290749431        6.2689604523        6.2689604523
O             6.1506953045        2.0108097952        2.0108097952
O             4.0807524943        4.0807524943        2.1290754518
O             4.1990177532        4.1990177532        6.1506947958
O             8.2206377454        2.1290750776        8.2206377454
O             0.0591325022        6.1506951700        0.0591325022
O             0.0591325022        0.0591325022        6.1506951700
O             8.2206377454        8.2206377454        2.1290750776
O             4.1990177532        6.1506947958        4.1990177532
O             4.0807524943        2.1290754518        4.0807524943
O             6.2689604523        2.1290749431        6.2689604523
O             2.0108097952        6.1506953045        2.0108097952
O             2.1290754518        4.0807524943        4.0807524943
O             6.1506947958        4.1990177532        4.1990177532
O             6.1506951700        0.0591325022        0.0591325022
O             2.1290750776        8.2206377454        8.2206377454
O             6.2689604523        6.2689604523        2.1290749431
O             2.0108097952        2.0108097952        6.1506953045



     Writing config-only to output data dir ./pwscf.save/
     NEW-OLD atomic charge density approx. for the potential
     extrapolated charge  510.11492, renormalised to  456.00000

     total cpu time spent up to now is     3333.3 secs

     Self-consistent Calculation

     iteration #  1     ecut=    50.00 Ry     beta= 0.40
     CG style diagonalization
     c_bands:  2 eigenvalues not converged
     c_bands:  3 eigenvalues not converged
     c_bands:  5 eigenvalues not converged
     c_bands:  1 eigenvalues not converged
     c_bands:  2 eigenvalues not converged
     c_bands:  3 eigenvalues not converged
     c_bands:  2 eigenvalues not converged
     c_bands:  4 eigenvalues not converged
     c_bands:  5 eigenvalues not converged
     c_bands:  4 eigenvalues not converged
     ethr =  1.00E-06,  avg # of iterations = 28.9

     total cpu time spent up to now is     4627.2 secs

     total energy              =   -1355.79449305 Ry
     estimated scf accuracy    <      17.85738260 Ry

     iteration #  2     ecut=    50.00 Ry     beta= 0.40
     CG style diagonalization
     ethr =  3.92E-03,  avg # of iterations =  4.0

     total cpu time spent up to now is     4780.2 secs

     total energy              =   -1367.24410651 Ry
     estimated scf accuracy    <       2.39903115 Ry

     iteration #  3     ecut=    50.00 Ry     beta= 0.40
     CG style diagonalization
     ethr =  5.26E-04,  avg # of iterations =  5.4

     total cpu time spent up to now is     4999.3 secs

     total energy              =   -1369.17780484 Ry
     estimated scf accuracy    <       3.21827499 Ry

     iteration #  4     ecut=    50.00 Ry     beta= 0.40
     CG style diagonalization
     ethr =  5.26E-04,  avg # of iterations =  3.3

     total cpu time spent up to now is     5121.1 secs

     total energy              =   -1368.62137497 Ry
     estimated scf accuracy    <       1.92673608 Ry

     iteration #  5     ecut=    50.00 Ry     beta= 0.40
     CG style diagonalization
     ethr =  4.23E-04,  avg # of iterations =  3.3

     total cpu time spent up to now is     5241.6 secs

     total energy              =   -1368.87035329 Ry
     estimated scf accuracy    <       0.16871672 Ry

     iteration #  6     ecut=    50.00 Ry     beta= 0.40
     CG style diagonalization
     ethr =  3.70E-05,  avg # of iterations =  6.1

     total cpu time spent up to now is     5494.1 secs

     total energy              =   -1369.13647080 Ry
     estimated scf accuracy    <       0.01201066 Ry

     iteration #  7     ecut=    50.00 Ry     beta= 0.40
     CG style diagonalization
     c_bands:  1 eigenvalues not converged
     c_bands:  2 eigenvalues not converged
     c_bands:  2 eigenvalues not converged
     c_bands:  3 eigenvalues not converged
     c_bands:  1 eigenvalues not converged
     c_bands:  3 eigenvalues not converged
     c_bands:  1 eigenvalues not converged
     c_bands:  4 eigenvalues not converged
     c_bands:  1 eigenvalues not converged
     ethr =  2.63E-06,  avg # of iterations =  7.2

     total cpu time spent up to now is     5800.9 secs

     total energy              =   -1369.19669734 Ry
     estimated scf accuracy    <       0.06056430 Ry

     iteration #  8     ecut=    50.00 Ry     beta= 0.40
     CG style diagonalization
     c_bands:  1 eigenvalues not converged
     c_bands:  1 eigenvalues not converged
     c_bands:  1 eigenvalues not converged
     ethr =  2.63E-06,  avg # of iterations =  5.7

     total cpu time spent up to now is     6034.7 secs

     total energy              =   -1369.21409175 Ry
     estimated scf accuracy    <       0.00166762 Ry

     iteration #  9     ecut=    50.00 Ry     beta= 0.40
     CG style diagonalization
     c_bands:  1 eigenvalues not converged
     c_bands:  1 eigenvalues not converged
     ethr =  3.66E-07,  avg # of iterations =  7.0

     total cpu time spent up to now is     6331.1 secs

     total energy              =   -1369.21522721 Ry
     estimated scf accuracy    <       0.01993072 Ry

     iteration # 10     ecut=    50.00 Ry     beta= 0.40
     CG style diagonalization
     c_bands:  1 eigenvalues not converged
     ethr =  3.66E-07,  avg # of iterations =  5.2

     total cpu time spent up to now is     6541.1 secs

     total energy              =   -1369.21706287 Ry
     estimated scf accuracy    <       0.00149080 Ry

     iteration # 11     ecut=    50.00 Ry     beta= 0.40
     CG style diagonalization
     c_bands:  1 eigenvalues not converged
     ethr =  3.27E-07,  avg # of iterations =  4.0

     total cpu time spent up to now is     6695.0 secs

     End of self-consistent calculation

          k = 0.1198 0.1198 0.1198 ( 20110 PWs)   bands (ev):

    -2.6837  -1.8930  -1.8930  -1.8929  -1.4828  -1.4828  -1.4828  -1.2424
    -1.2424  -1.2424  -0.9969  -0.9969  -0.9969  -0.9913  -0.9429  -0.9429
    -0.9428  -0.8942  -0.8942  -0.8711  -0.7669  -0.7669  -0.7668  -0.4648
    -0.4648  -0.4569  -0.4099  -0.4099  -0.4099  -0.4077  -0.4077  -0.4076
     8.6433   8.6433   8.7155   9.2864   9.4322   9.4322   9.7905   9.7905
     9.7905   9.8009   9.8009   9.8009  10.1467  10.1467  10.1467  10.1973
    10.3432  10.3433  10.3433  10.4541  10.4541  10.4541  10.5329  10.5329
    10.5329  10.9441  10.9441  10.9441  11.1026  11.1026  11.1026  11.3055
    11.3055  11.3056  11.6899  11.6899  11.6899  11.8995  11.8995  11.8995
    12.1019  12.1019  12.1019  12.2018  12.2018  12.2018  12.2053  12.2053
    12.2053  12.4199  12.4199  12.4202  12.4202  12.4202  12.5732  12.6958
    12.6958  12.6958  12.9668  13.1551  13.1551  13.3076  13.3076  13.3076
    13.3314  13.3314  13.3314  13.4878  13.4878  13.5710  13.5770  13.5770
    13.5770  13.6617  13.6618  13.6618  13.7333  13.7333  14.0350  14.0350
    14.0351  14.0567  14.0567  14.0567  14.2902  14.3193  14.3193  14.3194
    14.3721  14.4448  14.4448  14.4448  14.5080  14.5080  14.6885  14.6885
    19.0968  19.0968  19.1124  19.3048  21.0772  21.0772  21.0772  21.4589
    21.4589  21.4589  21.5081  21.5081  21.5081  21.5215  21.5215  21.5216
    22.1501  22.3419  22.4453  22.4453  22.8358  22.8358  22.8358  23.0410
    23.3495  23.3495  23.3495  23.4227  23.4227  23.4227  23.5729  23.5729
    23.5730  23.7971  23.7971  23.8857  23.8858  23.8858  24.0303  24.0303
    24.0303  24.1655  24.1655  24.1654  24.3561  24.3561  24.6789  24.6789
    24.6789  24.7436  24.9557  24.9557  24.9557  25.0753  25.1553  25.1553
    25.4341  25.4341  25.4341  25.4669  25.4669  25.4669  25.5320  25.5320
    25.5320  25.6009  25.6009  25.6813  25.6813  25.6813  25.6827  25.6827
    25.6827  25.8747  25.8747  25.8747  25.9753  25.9753  25.9754  25.9934
    26.1840  26.1840  26.3054  26.3054  26.3054  26.3793  26.3793  26.3794
    26.6870  26.6870  26.6870  26.7334  26.7334  26.7334  27.0218  27.0218
    27.0218  27.1336  27.1336  27.1336  27.3884  27.3884  27.3884  27.7790
    27.9648  27.9650  27.9655  28.0274  28.0687  28.0689  28.0691  28.1392
    28.1393  28.5423  28.5423  28.5425  28.5532  28.5535  28.5538  28.8269
    28.8271  28.9501  28.9502  28.9503  29.3295  29.3297  29.3303  29.3672
    29.3696  29.4341  29.4873  29.4878  29.4883  29.6718  29.6725  30.0371
    30.3051  30.3059  30.3109  30.4357  30.4526  30.4742  30.6426  30.6494
    30.6681  30.9487

          k = 0.1198 0.1198 0.3595 ( 20152 PWs)   bands (ev):

    -2.5388  -2.2644  -1.8017  -1.8016  -1.5559  -1.5558  -1.3441  -1.3440
    -1.2317  -1.1534  -1.1534  -1.1127  -1.0504  -0.9675  -0.9250  -0.9164
    -0.8898  -0.8252  -0.7685  -0.7113  -0.7113  -0.6357  -0.5959  -0.5959
    -0.5087  -0.5087  -0.4695  -0.4695  -0.4487  -0.4443  -0.4260  -0.4230
     8.8575   8.9076   9.0451   9.3032   9.3599   9.5723   9.5747   9.5979
     9.6280   9.8305   9.8305   9.9150   9.9509   9.9509  10.0092  10.0571
    10.1097  10.1097  10.3107  10.3107  10.3606  10.3607  10.3749  10.6816
    10.6816  10.7202  10.7893  10.7893  11.0844  11.0844  11.2000  11.2000
    11.3357  11.3358  11.4870  11.6992  11.6993  11.7847  11.8548  11.8548
    12.0195  12.2526  12.3073  12.3427  12.4196  12.5346  12.6327  12.6327
    12.6346  12.6688  12.6688  12.6997  12.7139  12.8129  12.8130  12.9709
    13.0063  13.0334  13.0334  13.0675  13.1056  13.1465  13.1923  13.1923
    13.2091  13.2095  13.2643  13.2643  13.3032  13.3286  13.3286  13.4646
    13.4740  13.4740  13.5507  13.5599  13.6675  13.6980  13.7339  13.9252
    14.0007  14.0008  14.0997  14.0997  14.2234  14.2235  14.2593  14.2645
    14.3920  14.4132  14.4132  14.4189  14.4318  14.4694  14.5683  14.5907
    19.5098  19.6957  19.6985  20.0188  20.2443  20.6528  20.6576  20.9623
    21.3870  21.3870  21.4940  21.4940  21.6123  21.6124  21.7287  21.7287
    22.2947  22.4504  22.4504  22.6933  22.7082  22.7186  22.7186  22.7827
    22.9394  22.9677  22.9677  22.9895  22.9895  23.1137  23.2564  23.3211
    23.5095  23.5883  23.8636  23.8911  23.9396  24.0662  24.2114  24.3248
    24.3248  24.4120  24.4348  24.5691  24.5691  24.5855  24.6698  24.6698
    24.7608  24.8131  24.8131  24.8791  24.8791  25.0083  25.0286  25.0286
    25.0429  25.0790  25.1545  25.1656  25.1655  25.3048  25.3048  25.3327
    25.5723  25.6656  25.6657  25.7598  25.7642  25.7791  25.8231  25.8231
    25.8706  26.0017  26.0182  26.0886  26.0928  26.0928  26.2934  26.2934
    26.3601  26.4160  26.4160  26.4680  26.4680  26.4709  26.4728  26.7197
    26.7381  26.7381  26.8089  26.9025  26.9764  26.9764  27.3006  27.3006
    27.3288  27.4105  27.4105  27.4867  27.6193  27.7722  27.7729  27.7801
    27.8997  27.9259  27.9265  28.0965  28.0967  28.0974  28.2276  28.2458
    28.2764  28.3255  28.3724  28.3725  28.5075  28.5086  28.5270  28.6256
    28.7890  28.8037  28.8039  28.9654  29.0129  29.0136  29.0960  29.1419
    29.2257  29.2924  29.2933  29.3685  29.3809  29.7039  29.7118  30.0586
    30.0681  30.0770  30.1460  30.1466  30.2561  30.5121  30.5232  30.6105
    30.7467  30.8551

          k = 0.1198 0.3595 0.3595 ( 20162 PWs)   bands (ev):

    -2.4003  -2.1401  -2.1401  -1.9192  -1.6342  -1.4628  -1.4627  -1.3062
    -1.2726  -1.1427  -1.1427  -1.0339  -0.9360  -0.9359  -0.8514  -0.8200
    -0.7713  -0.7614  -0.7191  -0.7191  -0.6494  -0.6494  -0.6316  -0.5844
    -0.5613  -0.5561  -0.5561  -0.5440  -0.5018  -0.4491  -0.4491  -0.4445
     9.0108   9.1176   9.3854   9.3855   9.3952   9.5169   9.5170   9.6505
     9.7120   9.7419   9.8339   9.8834   9.8838   9.8872   9.8872   9.9067
     9.9067  10.0114  10.0114  10.0488  10.3230  10.3822  10.3822  10.4625
    10.4729  10.6452  10.6452  10.8471  11.0436  11.1031  11.1031  11.3625
    11.4657  11.5653  11.7770  11.7770  11.9293  11.9293  12.0056  12.1962
    12.1962  12.2247  12.2585  12.3640  12.3640  12.4058  12.4660  12.5617
    12.6383  12.6383  12.6458  12.7693  12.7693  12.8580  12.8891  12.9891
    12.9929  13.0096  13.0096  13.0700  13.1420  13.1862  13.1904  13.1904
    13.2285  13.2285  13.2336  13.2832  13.2832  13.3156  13.3577  13.4121
    13.4724  13.4724  13.5145  13.5419  13.5514  13.5514  13.6282  13.7306
    13.9768  14.1355  14.1355  14.1386  14.1847  14.1890  14.1890  14.3407
    14.3734  14.3734  14.3763  14.4197  14.5262  14.5262  14.5747  14.6617
    20.0274  20.0552  20.0992  20.5035  20.7101  20.7101  20.7720  20.7720
    20.9476  20.9476  21.1088  21.2421  21.2421  21.3212  21.4074  21.6213
    22.0340  22.1346  22.2512  22.2512  22.4399  22.5706  22.6352  22.6352
    22.6568  22.7060  22.7775  22.7775  22.9426  22.9427  22.9879  23.0260
    23.6783  23.8048  23.9687  23.9687  24.1246  24.3054  24.3054  24.4256
    24.4320  24.4319  24.5082  24.5184  24.6751  24.6751  24.6954  24.7003
    24.8656  24.8656  24.8806  24.8998  24.9848  25.0361  25.1973  25.1973
    25.2286  25.3260  25.4644  25.4644  25.5998  25.6102  25.6413  25.6832
    25.8470  25.8622  25.8622  25.9193  25.9193  25.9504  25.9504  26.0390
    26.0558  26.1441  26.1441  26.1745  26.1806  26.1806  26.1807  26.2089
    26.4538  26.4944  26.4944  26.5206  26.5206  26.6207  26.6477  26.6582
    26.8372  26.8372  26.8547  26.9143  27.0179  27.0648  27.0648  27.2623
    27.2623  27.4702  27.5246  27.5246  27.6219  27.6422  27.6864  27.7109
    27.8018  27.8021  27.8562  28.0521  28.0528  28.1355  28.1955  28.2094
    28.2092  28.2542  28.4193  28.5173  28.5301  28.5733  28.5735  28.6081
    28.7506  28.8499  28.8705  28.9009  28.9218  28.9230  28.9518  28.9530
    29.2033  29.2130  29.2546  29.2579  29.3412  29.4917  29.4920  29.5498
    29.6166  29.7926  29.7924  30.0852  30.2049  30.3309  30.3411  30.4107
    30.4127  30.4884

          k = 0.3595 0.3595 0.3595 ( 20162 PWs)   bands (ev):

[...]
     3.1719   3.2031   3.2032   3.3856   3.6044   3.6320   3.6320   3.7780
     4.0225   4.0225   4.0820   4.0930   4.1530   4.1531   4.2091   4.2361
     4.3837   4.3837   4.4123   4.4394   4.4395   4.5527   4.5691   4.5696
     4.6333   4.7195   4.7196   4.7988   4.8213   4.8619   4.8685   4.8885
     4.8885   4.9161   4.9811   4.9811   5.0292   5.1804   5.1804   5.2286
     5.2548   5.2681   5.3239   5.3240   5.3785   5.5278   5.5278   5.6559
     5.6570   5.6616   5.6617   5.7546   5.7878   5.9222   5.9274   5.9275
     5.9591   5.9887   6.0855   6.0855   6.1107   6.1963   6.1963   6.3332
     6.3921   6.5287   6.5287   6.5704   6.6335   7.0614   7.0614   7.2711
     7.4384   7.5388   7.5389   7.5980   7.6326   7.6326   7.6735   7.6964
     7.8232   7.9172   7.9431   7.9431   8.1402   8.3199   8.3199   8.3778
     8.4100   8.4100   8.4520   8.4605   8.5465   8.5673   8.5675   8.5675
     8.6162   8.6246   8.6246   8.6892   8.7070   8.7070   8.7666   8.7792
     8.8174   8.8346   8.8346   8.8889   8.8915   9.0318   9.0420   9.0901
     9.0901   9.1204   9.1205   9.1415   9.1806   9.2197   9.2493   9.2550
     9.2551   9.3470   9.3470   9.6241   9.6310   9.6757   9.6757   9.7883
     9.8567   9.8678   9.8679   9.8911   9.9432  10.0491  10.0493  10.1912
    10.1970  10.1970  10.1971  10.2332  10.3248  10.3284  10.3285  10.3479
    10.3811  10.4328  10.4787  10.4789  10.5400  10.7450  10.7451  10.7719
    10.8604  10.8604  11.0664  11.2972  11.2972  11.3103  11.3528  11.3898
    11.4367  11.5642  11.5644  11.6165  11.8273  11.9127  11.9249  11.9249
    12.0002  12.1273  12.1978  12.1979  12.3552  12.3552  12.3777  12.5850
    12.5964  12.6220  12.6220  12.6816  12.6816  12.7683  13.0453  13.3020
    13.3118  13.3878  13.4434  13.4436  13.4911  13.6091  13.6674  13.6675
    13.7449  13.7450  13.7774  13.7923  13.8436  13.8617  13.9987  13.9991
    14.0624  14.1725  14.1733  14.2035  14.2702  14.5120  14.5366  14.5852
    14.7042  14.7333

          k = 0.0934 0.2801-0.2801 ( 48349 PWs)   bands (ev):

    -8.8075  -8.7519  -8.7519  -8.7184  -8.5605  -8.5281  -8.5281  -8.4747
    -7.7543  -7.7448  -7.7445  -7.7309  -7.6843  -7.6840  -7.6778  -7.6670
    -7.6606  -7.6368  -7.6296  -7.6295  -7.6143  -7.6143  -7.6083  -7.5805
    -7.5783  -7.5635  -7.5607  -7.5603  -7.5336  -7.5327  -7.5322  -7.5311
     0.6499   0.7544   0.7545   0.8017   1.0178   1.0696   1.0697   1.0764
     1.0834   1.1140   1.2353   1.2353   1.3106   1.3125   1.3126   1.4430
     1.5813   1.5814   1.6405   1.7564   1.8049   1.8082   1.9233   1.9233
     2.0466   2.3516   2.3517   2.7462   3.0787   3.0808   3.0809   3.1364
     3.1721   3.2030   3.2030   3.3857   3.6042   3.6319   3.6319   3.7782
     4.0224   4.0226   4.0822   4.0930   4.1529   4.1530   4.2089   4.2361
     4.3836   4.3838   4.4124   4.4396   4.4397   4.5525   4.5691   4.5696
     4.6334   4.7194   4.7195   4.7990   4.8210   4.8618   4.8682   4.8885
     4.8887   4.9162   4.9810   4.9811   5.0288   5.1805   5.1807   5.2287
     5.2551   5.2680   5.3239   5.3240   5.3784   5.5277   5.5278   5.6559
     5.6570   5.6617   5.6617   5.7546   5.7879   5.9221   5.9273   5.9274
     5.9589   5.9884   6.0856   6.0857   6.1109   6.1963   6.1964   6.3331
     6.3918   6.5288   6.5289   6.5702   6.6336   7.0613   7.0614   7.2712
     7.4380   7.5390   7.5391   7.5980   7.6324   7.6325   7.6735   7.6963
     7.8235   7.9175   7.9431   7.9434   8.1401   8.3196   8.3198   8.3777
     8.4101   8.4102   8.4520   8.4603   8.5464   8.5674   8.5675   8.5676
     8.6164   8.6245   8.6246   8.6893   8.7070   8.7071   8.7664   8.7795
     8.8174   8.8346   8.8346   8.8889   8.8917   9.0321   9.0419   9.0901
     9.0902   9.1205   9.1206   9.1411   9.1804   9.2197   9.2494   9.2550
     9.2552   9.3467   9.3469   9.6242   9.6310   9.6757   9.6759   9.7884
     9.8564   9.8678   9.8679   9.8912   9.9432  10.0492  10.0494  10.1911
    10.1970  10.1970  10.1972  10.2332  10.3248  10.3284  10.3286  10.3477
    10.3815  10.4328  10.4787  10.4790  10.5399  10.7448  10.7451  10.7717
    10.8599  10.8602  11.0665  11.2971  11.2973  11.3103  11.3529  11.3900
    11.4369  11.5641  11.5643  11.6166  11.8272  11.9127  11.9248  11.9250
    12.0003  12.1275  12.1976  12.1977  12.3550  12.3551  12.3779  12.5852
    12.5961  12.6219  12.6220  12.6816  12.6817  12.7688  13.0450  13.3019
    13.3120  13.3880  13.4438  13.4439  13.4909  13.6088  13.6672  13.6674
    13.7446  13.7451  13.7775  13.7925  13.8433  13.8620  13.9990  13.9994
    14.0619  14.1723  14.1728  14.2041  14.2698  14.5101  14.5155  14.5897
    14.7033  14.7241

          k =-0.2801 0.2801 0.2801 ( 48296 PWs)   bands (ev):

    -8.7855  -8.7499  -8.7499  -8.7499  -8.5311  -8.5310  -8.5310  -8.4967
    -7.7526  -7.7520  -7.7520  -7.7438  -7.6602  -7.6602  -7.6598  -7.6488
    -7.6482  -7.6380  -7.6380  -7.6379  -7.6067  -7.6066  -7.6065  -7.5974
    -7.5968  -7.5867  -7.5866  -7.5862  -7.5217  -7.5212  -7.5212  -7.5210
     0.6906   0.7503   0.7504   0.7504   1.0881   1.1328   1.1328   1.1329
     1.1734   1.1735   1.2558   1.2558   1.2559   1.3299   1.3299   1.3299
     1.6177   1.6178   1.6178   1.6718   1.6718   1.7190   1.7190   1.7191
     2.2939   2.2939   2.2939   2.5160   3.1783   3.1783   3.1784   3.3547
     3.3548   3.3549   3.3830   3.3833   3.4466   3.4467   3.4467   3.5977
     3.9757   3.9759   3.9759   4.0304   4.0305   4.0306   4.0616   4.0617
     4.2880   4.4794   4.4797   4.4797   4.7134   4.7134   4.7135   4.7849
     4.7852   4.8070   4.8071   4.8072   4.8888   4.8888   4.8889   5.0079
     5.0745   5.0746   5.0746   5.0836   5.1393   5.1393   5.1397   5.2290
     5.2294   5.2330   5.2332   5.2332   5.5539   5.5539   5.5539   5.6777
     5.6778   5.6989   5.6990   5.6990   5.8093   5.9400   5.9644   5.9645
     5.9646   6.0603   6.0603   6.0605   6.2138   6.2138   6.2139   6.2381
     6.2384   6.2712   6.2712   6.2714   6.5351   6.8314   6.8314   6.8314
     7.6652   7.6652   7.6655   7.6939   7.6943   7.7666   7.7947   7.7948
     7.7948   7.8732   7.8733   7.8733   8.1578   8.1579   8.1579   8.1926
     8.2125   8.2126   8.2128   8.2437   8.2795   8.2795   8.3995   8.3995
     8.3996   8.6625   8.6630   8.6630   8.8599   8.8601   8.9211   8.9213
     8.9214   8.9483   8.9483   8.9484   8.9945   9.0241   9.0244   9.0245
     9.1529   9.1534   9.1820   9.1821   9.1821   9.1997   9.1997   9.1998
     9.3373   9.3375   9.3375   9.6019   9.8826   9.8827   9.8828   9.9730
     9.9731   9.9803   9.9804   9.9805  10.1253  10.1253  10.1255  10.2467
    10.2468  10.2660  10.2661  10.2663  10.3769  10.3769  10.3771  10.4197
    10.4201  10.4202  10.5595  10.6097  10.6098  10.6098  10.6305  10.6307
    10.6307  10.7523  10.7760  10.7761  11.6035  11.6037  11.6037  11.6117
    11.6119  11.6120  11.6732  11.6732  11.7375  12.0146  12.0148  12.0149
    12.3342  12.3344  12.3344  12.4262  12.4262  12.4578  12.4579  12.4580
    12.5080  12.5081  12.5082  12.6784  12.6784  12.6787  12.8368  12.8373
    13.1340  13.3465  13.3467  13.3468  13.3857  13.3858  13.3859  13.6181
    13.6182  13.6442  13.6443  13.6444  13.6621  13.6623  13.6623  13.6659
    13.6664  13.8542  13.9465  13.9466  13.9467  14.2436  14.2439  14.2440
    14.5388  14.7617

     the Fermi energy is    11.6753 ev

!    total energy              =   -1470.40591921 Ry
     estimated scf accuracy    <       0.00000073 Ry
     smearing contrib. (-TS)   =      -0.01620345 Ry
     internal energy E=F+TS    =   -1470.38971576 Ry

     The total energy is F=E-TS. E is the sum of the following terms:
     one-electron contribution =    -175.10371340 Ry
     hartree contribution      =     420.70624563 Ry
     xc contribution           =    -486.63845225 Ry
     ewald contribution        =   -1229.35379574 Ry

     convergence has been achieved in  24 iterations

     Forces acting on atoms (cartesian axes, Ry/au):

     atom    1 type  1   force =    -0.00004786   -0.00004786   -0.00004786
     atom    2 type  1   force =     0.00004786    0.00004786    0.00004786
     atom    3 type  1   force =    -0.00004739   -0.00004871   -0.00004739
     atom    4 type  1   force =     0.00004739    0.00004871    0.00004739
     atom    5 type  1   force =    -0.00004871   -0.00004739   -0.00004739
     atom    6 type  1   force =     0.00004871    0.00004739    0.00004739
     atom    7 type  1   force =    -0.00004739   -0.00004739   -0.00004871
     atom    8 type  1   force =     0.00004739    0.00004739    0.00004871
     atom    9 type  1   force =    -0.00000000   -0.00000000    0.00000000
     atom   10 type  1   force =     0.00000071   -0.00000071   -0.00000000
     atom   11 type  1   force =    -0.00000071    0.00000071    0.00000000
     atom   12 type  1   force =    -0.00000071   -0.00000000    0.00000071
     atom   13 type  1   force =     0.00000071    0.00000000   -0.00000071
     atom   14 type  1   force =     0.00000000    0.00000071   -0.00000071
     atom   15 type  1   force =    -0.00000000   -0.00000071    0.00000071
     atom   16 type  1   force =    -0.00000000   -0.00000000    0.00000000
     atom   17 type  1   force =    -0.00000017   -0.00000017    0.00004848
     atom   18 type  1   force =     0.00000017    0.00000017   -0.00004848
     atom   19 type  1   force =     0.00000017   -0.00004848    0.00000017
     atom   20 type  1   force =    -0.00000017    0.00004848   -0.00000017
     atom   21 type  1   force =    -0.00000000    0.00000000    0.00000000
     atom   22 type  1   force =     0.00004848   -0.00000017   -0.00000017
     atom   23 type  1   force =    -0.00004848    0.00000017    0.00000017
     atom   24 type  1   force =     0.00000000   -0.00000000    0.00000000
     atom   25 type  1   force =     0.00000000   -0.00000000   -0.00000000
     atom   26 type  1   force =     0.00000199   -0.00000199   -0.00000000
     atom   27 type  1   force =    -0.00000199    0.00000199    0.00000000
     atom   28 type  1   force =    -0.00000199   -0.00000000    0.00000199
     atom   29 type  1   force =     0.00000199    0.00000000   -0.00000199
     atom   30 type  1   force =     0.00000000    0.00000199   -0.00000199
     atom   31 type  1   force =    -0.00000000   -0.00000199    0.00000199
     atom   32 type  1   force =     0.00000000   -0.00000000   -0.00000000
     atom   33 type  1   force =    -0.00000050   -0.00000050   -0.00000088
     atom   34 type  1   force =     0.00000050    0.00000050    0.00000088
     atom   35 type  1   force =     0.00000050    0.00000088    0.00000050
     atom   36 type  1   force =    -0.00000050   -0.00000088   -0.00000050
     atom   37 type  1   force =    -0.00000000    0.00000000   -0.00000000
     atom   38 type  1   force =    -0.00000088   -0.00000050   -0.00000050
     atom   39 type  1   force =     0.00000088    0.00000050    0.00000050
     atom   40 type  1   force =    -0.00000000    0.00000000    0.00000000
     atom   41 type  1   force =    -0.00172142    0.00002835    0.00002835
     atom   42 type  1   force =     0.00172142   -0.00002835   -0.00002835
     atom   43 type  1   force =     0.00182882    0.00004950    0.00004947
     atom   44 type  1   force =    -0.00182882   -0.00004950   -0.00004947
     atom   45 type  1   force =     0.00185040    0.00007146    0.00007146
     atom   46 type  1   force =    -0.00185040   -0.00007146   -0.00007146
     atom   47 type  1   force =    -0.00171833    0.00002184    0.00003642
     atom   48 type  1   force =     0.00171833   -0.00002184   -0.00003642
     atom   49 type  1   force =     0.00002835   -0.00172142    0.00002835
     atom   50 type  1   force =    -0.00002835    0.00172142   -0.00002835
     atom   51 type  1   force =     0.00004947    0.00182882    0.00004950
     atom   52 type  1   force =    -0.00004947   -0.00182882   -0.00004950
     atom   53 type  1   force =     0.00007146    0.00185040    0.00007146
     atom   54 type  1   force =    -0.00007146   -0.00185040   -0.00007146
     atom   55 type  1   force =     0.00003642   -0.00171833    0.00002184
     atom   56 type  1   force =    -0.00003642    0.00171833   -0.00002184
     atom   57 type  1   force =     0.00002835    0.00002835   -0.00172142
     atom   58 type  1   force =    -0.00002835   -0.00002835    0.00172142
     atom   59 type  1   force =     0.00004950    0.00004947    0.00182882
     atom   60 type  1   force =    -0.00004950   -0.00004947   -0.00182882
     atom   61 type  1   force =     0.00007146    0.00007146    0.00185040
     atom   62 type  1   force =    -0.00007146   -0.00007146   -0.00185040
     atom   63 type  1   force =     0.00002184    0.00003642   -0.00171833
     atom   64 type  1   force =    -0.00002184   -0.00003642    0.00171833
     atom   65 type  1   force =    -0.00004950   -0.00182882   -0.00004947
     atom   66 type  1   force =     0.00004950    0.00182882    0.00004947
     atom   67 type  1   force =    -0.00002184    0.00171833   -0.00003642
     atom   68 type  1   force =     0.00002184   -0.00171833    0.00003642
     atom   69 type  1   force =     0.00171833   -0.00003642   -0.00002184
     atom   70 type  1   force =    -0.00171833    0.00003642    0.00002184
     atom   71 type  1   force =    -0.00182882   -0.00004947   -0.00004950
     atom   72 type  1   force =     0.00182882    0.00004947    0.00004950
     atom   73 type  1   force =    -0.00003642   -0.00002184    0.00171833
     atom   74 type  1   force =     0.00003642    0.00002184   -0.00171833
     atom   75 type  1   force =    -0.00004947   -0.00004950   -0.00182882
     atom   76 type  1   force =     0.00004947    0.00004950    0.00182882
     atom   77 type  1   force =    -0.00171631    0.00002560    0.00002560
     atom   78 type  1   force =     0.00171631   -0.00002560   -0.00002560
     atom   79 type  1   force =     0.00180978    0.00003061    0.00003061
     atom   80 type  1   force =    -0.00180978   -0.00003061   -0.00003061
     atom   81 type  1   force =     0.00003061    0.00003061    0.00180978
     atom   82 type  1   force =    -0.00003061   -0.00003061   -0.00180978
     atom   83 type  1   force =     0.00002560    0.00002560   -0.00171631
     atom   84 type  1   force =    -0.00002560   -0.00002560    0.00171631
     atom   85 type  1   force =    -0.00003061   -0.00180978   -0.00003061
     atom   86 type  1   force =     0.00003061    0.00180978    0.00003061
     atom   87 type  1   force =    -0.00002560    0.00171631   -0.00002560
     atom   88 type  1   force =     0.00002560   -0.00171631    0.00002560
     atom   89 type  2   force =     0.01624102    0.01624102    0.01624102
     atom   90 type  2   force =    -0.01624102   -0.01624102   -0.01624102
     atom   91 type  2   force =    -0.01623283   -0.01622734    0.01622938
     atom   92 type  2   force =     0.01623283    0.01622734   -0.01622938
     atom   93 type  2   force =    -0.01622734    0.01622938   -0.01623283
     atom   94 type  2   force =     0.01622734   -0.01622938    0.01623283
     atom   95 type  2   force =     0.01622938   -0.01623283   -0.01622734
     atom   96 type  2   force =    -0.01622938    0.01623283    0.01622734
     atom   97 type  2   force =     0.01622734    0.01623283   -0.01622938
     atom   98 type  2   force =    -0.01622734   -0.01623283    0.01622938
     atom   99 type  2   force =     0.01623283   -0.01622938    0.01622734
     atom  100 type  2   force =    -0.01623283    0.01622938   -0.01622734
     atom  101 type  2   force =    -0.01622938    0.01622734    0.01623283
     atom  102 type  2   force =     0.01622938   -0.01622734   -0.01623283
     atom  103 type  2   force =     0.01623302    0.01623444    0.01623444
     atom  104 type  2   force =    -0.01623302   -0.01623444   -0.01623444
     atom  105 type  2   force =    -0.01621013   -0.01621013    0.01624787
     atom  106 type  2   force =     0.01621013    0.01621013   -0.01624787
     atom  107 type  2   force =    -0.01622628    0.01622612   -0.01622628
     atom  108 type  2   force =     0.01622628   -0.01622612    0.01622628
     atom  109 type  2   force =     0.01622628    0.01622628   -0.01622612
     atom  110 type  2   force =    -0.01622628   -0.01622628    0.01622612
     atom  111 type  2   force =     0.01621013   -0.01624787    0.01621013
     atom  112 type  2   force =    -0.01621013    0.01624787   -0.01621013
     atom  113 type  2   force =     0.01623444    0.01623302    0.01623444
     atom  114 type  2   force =    -0.01623444   -0.01623302   -0.01623444
     atom  115 type  2   force =     0.01624787   -0.01621013   -0.01621013
     atom  116 type  2   force =    -0.01624787    0.01621013    0.01621013
     atom  117 type  2   force =    -0.01622612    0.01622628    0.01622628
     atom  118 type  2   force =     0.01622612   -0.01622628   -0.01622628
     atom  119 type  2   force =     0.01623444    0.01623444    0.01623302
     atom  120 type  2   force =    -0.01623444   -0.01623444   -0.01623302

     Total force =     0.159490     Total SCF correction =     0.001296


     Computing stress (Cartesian axis) and pressure

          total   stress  (Ry/bohr**3)                   (kbar)     P=      732.64
   0.00498041  -0.00000071  -0.00000071          732.64       -0.11       -0.11
  -0.00000071   0.00498041  -0.00000071           -0.11      732.64       -0.11
  -0.00000071  -0.00000071   0.00498041           -0.11       -0.11      732.64


     Writing all to output data dir ./pwscf.save/
 
     init_run     :     40.06s CPU     55.59s WALL (       2 calls)
     electrons    :  44237.72s CPU  48752.36s WALL (      12 calls)
     update_pot   :     12.50s CPU     12.81s WALL (      10 calls)
     forces       :     52.68s CPU     54.45s WALL (      12 calls)
     stress       :    458.12s CPU    459.60s WALL (      12 calls)

     Called by init_run:
     wfcinit      :     35.04s CPU     50.25s WALL (       2 calls)
     potinit      :      1.10s CPU      1.20s WALL (       2 calls)
     hinit0       :      2.38s CPU      2.47s WALL (       2 calls)

     Called by electrons:
     c_bands      :  43532.86s CPU  47682.38s WALL (     204 calls)
     sum_band     :    671.55s CPU   1019.80s WALL (     204 calls)
     v_of_rho     :     10.42s CPU     15.59s WALL (     215 calls)
     newd         :     15.40s CPU     17.02s WALL (     215 calls)
     mix_rho      :      7.02s CPU     13.19s WALL (     204 calls)

     Called by c_bands:
     init_us_2    :     32.32s CPU     33.35s WALL (    4340 calls)
     init_us_2:cp :     32.26s CPU     33.32s WALL (    4340 calls)
     ccgdiagg     :  41957.82s CPU  45379.84s WALL (    2228 calls)
     wfcrot       :   1578.11s CPU   2317.44s WALL (    2118 calls)

     Called by *cgdiagg:
     h_psi        :  20191.86s CPU  23920.17s WALL ( 2352858 calls)
     s_psi        :  13475.02s CPU  13704.55s WALL ( 4703598 calls)

     Called by h_psi:
     h_psi:calbec :   6880.93s CPU   7927.57s WALL ( 2352858 calls)
     vloc_psi     :   6503.32s CPU   8989.08s WALL ( 2352858 calls)
     add_vuspsi   :   6747.46s CPU   6958.30s WALL ( 2352858 calls)
     hs_1psi      :  25624.48s CPU  28724.06s WALL ( 2350740 calls)
     s_1psi       :  13855.86s CPU  14122.15s WALL ( 2350740 calls)

     General routines
     calbec       :  14083.16s CPU  15325.36s WALL ( 4706238 calls)
     fft          :     10.36s CPU     19.52s WALL (    3082 calls)
     ffts         :      5.14s CPU      9.96s WALL (    4252 calls)
     fftw         :   6778.54s CPU   9574.64s WALL ( 6429344 calls)
     interpolate  :      1.00s CPU      1.88s WALL (     215 calls)
 
     Parallel routines
 
     PWSCF        :     12h26m CPU     13h42m WALL

 
   This run was terminated on:  20:40:12  30Jan2023            

=------------------------------------------------------------------------------=
   JOB DONE.
=------------------------------------------------------------------------------=
