
     Program PWSCF v.7.0 starts on 30Jan2023 at 22:13:41 

     This program is part of the open-source Quantum ESPRESSO suite
     for quantum simulation of materials; please cite
         "P. Giannozzi et al., J. Phys.:Condens. Matter 21 395502 (2009);
         "P. Giannozzi et al., J. Phys.:Condens. Matter 29 465901 (2017);
         "P. Giannozzi et al., J. Chem. Phys. 152 154105 (2020);
          URL http://www.quantum-espresso.org", 
     in publications or presentations arising from this work. More details at
     http://www.quantum-espresso.org/quote

     Parallel version (MPI), running on    60 processors

     MPI processes distributed on     3 nodes
     R & G space division:  proc/nbgrp/npool/nimage =      60
     59327 MiB available memory on the printing compute node when the environment starts
 
     Reading input from al2o3_100.in

     Current dimensions of program PWSCF are:
     Max number of different atomic species (ntypx) = 10
     Max number of k-points (npk) =  40000
     Max angular momentum in pseudopotentials (lmaxx) =  4

     File ./pwscf.update deleted, as requested
     Found identity + ( -0.2500 -0.5000  0.0000) symmetry
     This is a supercell, fractional translations are disabled

     Subspace diagonalization in iterative solution of the eigenvalue problem:
     a serial algorithm will be used

 
     Parallelization info
     --------------------
     sticks:   dense  smooth     PW     G-vecs:    dense   smooth      PW
     Min         298     119     31                72294    18291    2509
     Max         299     120     32                72309    18304    2528
     Sum       17907    7165   1903              4338017  1097757  151181
 
     Using Slab Decomposition
 


     bravais-lattice index     =            0
     lattice parameter (alat)  =      30.0020  a.u.
     unit-cell volume          =   22976.2346 (a.u.)^3
     number of atoms/cell      =          240
     number of atomic types    =            2
     number of electrons       =       912.00
     number of Kohn-Sham states=          547
     kinetic-energy cutoff     =      50.0000  Ry
     charge density cutoff     =     500.0000  Ry
     scf convergence threshold =      1.0E-04
     mixing beta               =       0.4000
     number of iterations used =            8  local-TF  mixing
     energy convergence thresh.=      1.0E-04
     force convergence thresh. =      1.0E-03
     press convergence thresh. =      5.0E-01
     Exchange-correlation= PBE
                           (   1   4   3   4   0   0   0)
     nstep                     =          100


     celldm(1)=  30.002048  celldm(2)=   0.000000  celldm(3)=   0.000000
     celldm(4)=   0.000000  celldm(5)=   0.000000  celldm(6)=   0.000000

     crystal axes: (cart. coord. in units of alat)
               a(1) = (   1.000000   0.000000   0.000000 )  
               a(2) = (   0.000000   0.500000   0.000000 )  
               a(3) = (   0.000000   0.000000   1.701595 )  

     reciprocal axes: (cart. coord. in units 2 pi/alat)
               b(1) = (  1.000000  0.000000  0.000000 )  
               b(2) = (  0.000000  2.000000  0.000000 )  
               b(3) = (  0.000000  0.000000  0.587684 )  


     PseudoPot. # 1 for Al read from file:
     ./Al.pbe-nl-rrkjus_psl.1.0.0.UPF
     MD5 check sum: 6db8691240a1c860ce6448702d298c4b
     Pseudo is Ultrasoft + core correction, Zval =  3.0
     Generated using &quot;atomic&quot; code by A. Dal Corso  v.6.3
     Using radial grid of 1135 points,  4 beta functions with: 
                l(1) =   0
                l(2) =   0
                l(3) =   1
                l(4) =   1
     Q(r) pseudized with 0 coefficients 


     PseudoPot. # 2 for O  read from file:
     ./O.pbe-n-rrkjus_psl.1.0.0.UPF
     MD5 check sum: 91400c9766925bcf19f520983a725ff0
     Pseudo is Ultrasoft + core correction, Zval =  6.0
     Generated using &quot;atomic&quot; code by A. Dal Corso  v.6.3MaX
     Using radial grid of 1095 points,  4 beta functions with: 
                l(1) =   0
                l(2) =   0
                l(3) =   1
                l(4) =   1
     Q(r) pseudized with 0 coefficients 


     atomic species   valence    mass     pseudopotential
        Al             3.00    26.98154     Al( 1.00)
        O              6.00    15.99940     O ( 1.00)

     No symmetry found



   Cartesian axes

     site n.     atom                  positions (alat units)
         1           O   tau(   1) = (   0.3783650   0.1283650   1.0717307  )
         2           O   tau(   2) = (   0.4966350   0.2466350   1.0717307  )
         3           O   tau(   3) = (   0.1283650   0.3783650   1.0717307  )
         4           O   tau(   4) = (   0.2466350   0.4966350   1.0717307  )
         5           Al  tau(   5) = (   0.1250000   0.0000000   1.0683657  )
         6           Al  tau(   6) = (   0.3750000   0.0000000   1.0683657  )
         7           Al  tau(   7) = (   0.0000000   0.1250000   1.0683657  )
         8           Al  tau(   8) = (   0.2500000   0.1250000   1.0683657  )
         9           Al  tau(   9) = (   0.1250000   0.2500000   1.0683657  )
        10           Al  tau(  10) = (   0.3750000   0.2500000   1.0683657  )
        11           Al  tau(  11) = (   0.0000000   0.3750000   1.0683657  )
        12           Al  tau(  12) = (   0.2500000   0.3750000   1.0683657  )
        13           O   tau(  13) = (   0.0033650   0.0033650   1.0650007  )
        14           O   tau(  14) = (   0.1216350   0.1216350   1.0650007  )
        15           O   tau(  15) = (   0.2533650   0.2533650   1.0650007  )
        16           O   tau(  16) = (   0.3716350   0.3716350   1.0650007  )
        17           Al  tau(  17) = (   0.1875000   0.1875000   1.0068657  )
        18           Al  tau(  18) = (   0.4375000   0.4375000   1.0068657  )
        19           Al  tau(  19) = (   0.1885000   0.0625000   1.0058657  )
        20           Al  tau(  20) = (   0.3125000   0.0625000   1.0058657  )
        21           Al  tau(  21) = (   0.4365000   0.0625000   1.0058657  )
        22           Al  tau(  22) = (   0.3125000   0.1865000   1.0058657  )
        23           Al  tau(  23) = (   0.0625000   0.1885000   1.0058657  )
        24           Al  tau(  24) = (   0.0625000   0.3125000   1.0058657  )
        25           Al  tau(  25) = (   0.1865000   0.3125000   1.0058657  )
        26           Al  tau(  26) = (   0.4385000   0.3125000   1.0058657  )
        27           Al  tau(  27) = (   0.0625000   0.4365000   1.0058657  )
        28           Al  tau(  28) = (   0.3125000   0.4385000   1.0058657  )
        29           Al  tau(  29) = (   0.4375000   0.1875000   1.0048657  )
        30           Al  tau(  30) = (   0.1875000   0.4375000   1.0048657  )
        31           O   tau(  31) = (   0.1216350   0.0033650   0.9467307  )
        32           O   tau(  32) = (   0.0033650   0.1216350   0.9467307  )
        33           O   tau(  33) = (   0.3716350   0.2533650   0.9467307  )
        34           O   tau(  34) = (   0.2533650   0.3716350   0.9467307  )
        35           Al  tau(  35) = (   0.0000000   0.0000000   0.9433657  )
        36           Al  tau(  36) = (   0.2500000   0.0000000   0.9433657  )
        37           Al  tau(  37) = (   0.1250000   0.1250000   0.9433657  )
        38           Al  tau(  38) = (   0.3750000   0.1250000   0.9433657  )
        39           Al  tau(  39) = (   0.0000000   0.2500000   0.9433657  )
        40           Al  tau(  40) = (   0.2500000   0.2500000   0.9433657  )
        41           Al  tau(  41) = (   0.1250000   0.3750000   0.9433657  )
        42           Al  tau(  42) = (   0.3750000   0.3750000   0.9433657  )
        43           O   tau(  43) = (   0.2466350   0.1283650   0.9400007  )
        44           O   tau(  44) = (   0.1283650   0.2466350   0.9400007  )
        45           O   tau(  45) = (   0.4966350   0.3783650   0.9400007  )
        46           O   tau(  46) = (   0.3783650   0.4966350   0.9400007  )
        47           Al  tau(  47) = (   0.3125000   0.0625000   0.8818657  )
        48           Al  tau(  48) = (   0.0625000   0.3125000   0.8818657  )
        49           Al  tau(  49) = (   0.1875000   0.0615000   0.8808657  )
        50           Al  tau(  50) = (   0.4375000   0.0635000   0.8808657  )
        51           Al  tau(  51) = (   0.0615000   0.1875000   0.8808657  )
        52           Al  tau(  52) = (   0.3135000   0.1875000   0.8808657  )
        53           Al  tau(  53) = (   0.4375000   0.1875000   0.8808657  )
        54           Al  tau(  54) = (   0.4375000   0.3115000   0.8808657  )
        55           Al  tau(  55) = (   0.1875000   0.3135000   0.8808657  )
        56           Al  tau(  56) = (   0.0635000   0.4375000   0.8808657  )
        57           Al  tau(  57) = (   0.1875000   0.4375000   0.8808657  )
        58           Al  tau(  58) = (   0.3115000   0.4375000   0.8808657  )
        59           Al  tau(  59) = (   0.0625000   0.0625000   0.8798657  )
        60           Al  tau(  60) = (   0.3125000   0.3125000   0.8798657  )
        61           O   tau(  61) = (   0.1283650   0.1283650   0.8217307  )
        62           O   tau(  62) = (   0.2466350   0.2466350   0.8217307  )
        63           O   tau(  63) = (   0.3783650   0.3783650   0.8217307  )
        64           O   tau(  64) = (   0.4966350   0.4966350   0.8217307  )
        65           Al  tau(  65) = (   0.1250000   0.0000000   0.8183657  )
        66           Al  tau(  66) = (   0.3750000   0.0000000   0.8183657  )
        67           Al  tau(  67) = (   0.0000000   0.1250000   0.8183657  )
        68           Al  tau(  68) = (   0.2500000   0.1250000   0.8183657  )
        69           Al  tau(  69) = (   0.1250000   0.2500000   0.8183657  )
        70           Al  tau(  70) = (   0.3750000   0.2500000   0.8183657  )
        71           Al  tau(  71) = (   0.0000000   0.3750000   0.8183657  )
        72           Al  tau(  72) = (   0.2500000   0.3750000   0.8183657  )
        73           O   tau(  73) = (   0.2533650   0.0033650   0.8150007  )
        74           O   tau(  74) = (   0.3716350   0.1216350   0.8150007  )
        75           O   tau(  75) = (   0.0033650   0.2533650   0.8150007  )
        76           O   tau(  76) = (   0.1216350   0.3716350   0.8150007  )
        77           Al  tau(  77) = (   0.4375000   0.1875000   0.7568657  )
        78           Al  tau(  78) = (   0.1875000   0.4375000   0.7568657  )
        79           Al  tau(  79) = (   0.0625000   0.0625000   0.7558657  )
        80           Al  tau(  80) = (   0.1865000   0.0625000   0.7558657  )
        81           Al  tau(  81) = (   0.4385000   0.0625000   0.7558657  )
        82           Al  tau(  82) = (   0.0625000   0.1865000   0.7558657  )
        83           Al  tau(  83) = (   0.3125000   0.1885000   0.7558657  )
        84           Al  tau(  84) = (   0.1885000   0.3125000   0.7558657  )
        85           Al  tau(  85) = (   0.3125000   0.3125000   0.7558657  )
        86           Al  tau(  86) = (   0.4365000   0.3125000   0.7558657  )
        87           Al  tau(  87) = (   0.3125000   0.4365000   0.7558657  )
        88           Al  tau(  88) = (   0.0625000   0.4385000   0.7558657  )
        89           Al  tau(  89) = (   0.1875000   0.1875000   0.7548657  )
        90           Al  tau(  90) = (   0.4375000   0.4375000   0.7548657  )
        91           O   tau(  91) = (   0.3716350   0.0033650   0.6967307  )
        92           O   tau(  92) = (   0.2533650   0.1216350   0.6967307  )
        93           O   tau(  93) = (   0.1216350   0.2533650   0.6967307  )
        94           O   tau(  94) = (   0.0033650   0.3716350   0.6967307  )
        95           Al  tau(  95) = (   0.0000000   0.0000000   0.6933657  )
        96           Al  tau(  96) = (   0.2500000   0.0000000   0.6933657  )
        97           Al  tau(  97) = (   0.1250000   0.1250000   0.6933657  )
        98           Al  tau(  98) = (   0.3750000   0.1250000   0.6933657  )
        99           Al  tau(  99) = (   0.0000000   0.2500000   0.6933657  )
       100           Al  tau( 100) = (   0.2500000   0.2500000   0.6933657  )
       101           Al  tau( 101) = (   0.1250000   0.3750000   0.6933657  )
       102           Al  tau( 102) = (   0.3750000   0.3750000   0.6933657  )
       103           O   tau( 103) = (   0.4966350   0.1283650   0.6900007  )
       104           O   tau( 104) = (   0.3783650   0.2466350   0.6900007  )
       105           O   tau( 105) = (   0.2466350   0.3783650   0.6900007  )
       106           O   tau( 106) = (   0.1283650   0.4966350   0.6900007  )
       107           Al  tau( 107) = (   0.0625000   0.0625000   0.6318657  )
       108           Al  tau( 108) = (   0.3125000   0.3125000   0.6318657  )
       109           Al  tau( 109) = (   0.4375000   0.0615000   0.6308657  )
       110           Al  tau( 110) = (   0.1875000   0.0635000   0.6308657  )
       111           Al  tau( 111) = (   0.0635000   0.1875000   0.6308657  )
       112           Al  tau( 112) = (   0.1875000   0.1875000   0.6308657  )
       113           Al  tau( 113) = (   0.3115000   0.1875000   0.6308657  )
       114           Al  tau( 114) = (   0.1875000   0.3115000   0.6308657  )
       115           Al  tau( 115) = (   0.4375000   0.3135000   0.6308657  )
       116           Al  tau( 116) = (   0.0615000   0.4375000   0.6308657  )
       117           Al  tau( 117) = (   0.3135000   0.4375000   0.6308657  )
       118           Al  tau( 118) = (   0.4375000   0.4375000   0.6308657  )
       119           Al  tau( 119) = (   0.3125000   0.0625000   0.6298657  )
       120           Al  tau( 120) = (   0.0625000   0.3125000   0.6298657  )
       121           O   tau( 121) = (   0.8783650   0.1283650   1.0717307  )
       122           O   tau( 122) = (   0.9966350   0.2466350   1.0717307  )
       123           O   tau( 123) = (   0.6283650   0.3783650   1.0717307  )
       124           O   tau( 124) = (   0.7466350   0.4966350   1.0717307  )
       125           Al  tau( 125) = (   0.6250000   0.0000000   1.0683657  )
       126           Al  tau( 126) = (   0.8750000   0.0000000   1.0683657  )
       127           Al  tau( 127) = (   0.5000000   0.1250000   1.0683657  )
       128           Al  tau( 128) = (   0.7500000   0.1250000   1.0683657  )
       129           Al  tau( 129) = (   0.6250000   0.2500000   1.0683657  )
       130           Al  tau( 130) = (   0.8750000   0.2500000   1.0683657  )
       131           Al  tau( 131) = (   0.5000000   0.3750000   1.0683657  )
       132           Al  tau( 132) = (   0.7500000   0.3750000   1.0683657  )
       133           O   tau( 133) = (   0.5033650   0.0033650   1.0650007  )
       134           O   tau( 134) = (   0.6216350   0.1216350   1.0650007  )
       135           O   tau( 135) = (   0.7533650   0.2533650   1.0650007  )
       136           O   tau( 136) = (   0.8716350   0.3716350   1.0650007  )
       137           Al  tau( 137) = (   0.6875000   0.1875000   1.0068657  )
       138           Al  tau( 138) = (   0.9375000   0.4375000   1.0068657  )
       139           Al  tau( 139) = (   0.6885000   0.0625000   1.0058657  )
       140           Al  tau( 140) = (   0.8125000   0.0625000   1.0058657  )
       141           Al  tau( 141) = (   0.9365000   0.0625000   1.0058657  )
       142           Al  tau( 142) = (   0.8125000   0.1865000   1.0058657  )
       143           Al  tau( 143) = (   0.5625000   0.1885000   1.0058657  )
       144           Al  tau( 144) = (   0.5625000   0.3125000   1.0058657  )
       145           Al  tau( 145) = (   0.6865000   0.3125000   1.0058657  )
       146           Al  tau( 146) = (   0.9385000   0.3125000   1.0058657  )
       147           Al  tau( 147) = (   0.5625000   0.4365000   1.0058657  )
       148           Al  tau( 148) = (   0.8125000   0.4385000   1.0058657  )
       149           Al  tau( 149) = (   0.9375000   0.1875000   1.0048657  )
       150           Al  tau( 150) = (   0.6875000   0.4375000   1.0048657  )
       151           O   tau( 151) = (   0.6216350   0.0033650   0.9467307  )
       152           O   tau( 152) = (   0.5033650   0.1216350   0.9467307  )
       153           O   tau( 153) = (   0.8716350   0.2533650   0.9467307  )
       154           O   tau( 154) = (   0.7533650   0.3716350   0.9467307  )
       155           Al  tau( 155) = (   0.5000000   0.0000000   0.9433657  )
       156           Al  tau( 156) = (   0.7500000   0.0000000   0.9433657  )
       157           Al  tau( 157) = (   0.6250000   0.1250000   0.9433657  )
       158           Al  tau( 158) = (   0.8750000   0.1250000   0.9433657  )
       159           Al  tau( 159) = (   0.5000000   0.2500000   0.9433657  )
       160           Al  tau( 160) = (   0.7500000   0.2500000   0.9433657  )
       161           Al  tau( 161) = (   0.6250000   0.3750000   0.9433657  )
       162           Al  tau( 162) = (   0.8750000   0.3750000   0.9433657  )
       163           O   tau( 163) = (   0.7466350   0.1283650   0.9400007  )
       164           O   tau( 164) = (   0.6283650   0.2466350   0.9400007  )
       165           O   tau( 165) = (   0.9966350   0.3783650   0.9400007  )
       166           O   tau( 166) = (   0.8783650   0.4966350   0.9400007  )
       167           Al  tau( 167) = (   0.8125000   0.0625000   0.8818657  )
       168           Al  tau( 168) = (   0.5625000   0.3125000   0.8818657  )
       169           Al  tau( 169) = (   0.6875000   0.0615000   0.8808657  )
       170           Al  tau( 170) = (   0.9375000   0.0635000   0.8808657  )
       171           Al  tau( 171) = (   0.5615000   0.1875000   0.8808657  )
       172           Al  tau( 172) = (   0.8135000   0.1875000   0.8808657  )
       173           Al  tau( 173) = (   0.9375000   0.1875000   0.8808657  )
       174           Al  tau( 174) = (   0.9375000   0.3115000   0.8808657  )
       175           Al  tau( 175) = (   0.6875000   0.3135000   0.8808657  )
       176           Al  tau( 176) = (   0.5635000   0.4375000   0.8808657  )
       177           Al  tau( 177) = (   0.6875000   0.4375000   0.8808657  )
       178           Al  tau( 178) = (   0.8115000   0.4375000   0.8808657  )
       179           Al  tau( 179) = (   0.5625000   0.0625000   0.8798657  )
       180           Al  tau( 180) = (   0.8125000   0.3125000   0.8798657  )
       181           O   tau( 181) = (   0.6283650   0.1283650   0.8217307  )
       182           O   tau( 182) = (   0.7466350   0.2466350   0.8217307  )
       183           O   tau( 183) = (   0.8783650   0.3783650   0.8217307  )
       184           O   tau( 184) = (   0.9966350   0.4966350   0.8217307  )
       185           Al  tau( 185) = (   0.6250000   0.0000000   0.8183657  )
       186           Al  tau( 186) = (   0.8750000   0.0000000   0.8183657  )
       187           Al  tau( 187) = (   0.5000000   0.1250000   0.8183657  )
       188           Al  tau( 188) = (   0.7500000   0.1250000   0.8183657  )
       189           Al  tau( 189) = (   0.6250000   0.2500000   0.8183657  )
       190           Al  tau( 190) = (   0.8750000   0.2500000   0.8183657  )
       191           Al  tau( 191) = (   0.5000000   0.3750000   0.8183657  )
       192           Al  tau( 192) = (   0.7500000   0.3750000   0.8183657  )
       193           O   tau( 193) = (   0.7533650   0.0033650   0.8150007  )
       194           O   tau( 194) = (   0.8716350   0.1216350   0.8150007  )
       195           O   tau( 195) = (   0.5033650   0.2533650   0.8150007  )
       196           O   tau( 196) = (   0.6216350   0.3716350   0.8150007  )
       197           Al  tau( 197) = (   0.9375000   0.1875000   0.7568657  )
       198           Al  tau( 198) = (   0.6875000   0.4375000   0.7568657  )
       199           Al  tau( 199) = (   0.5625000   0.0625000   0.7558657  )
       200           Al  tau( 200) = (   0.6865000   0.0625000   0.7558657  )
       201           Al  tau( 201) = (   0.9385000   0.0625000   0.7558657  )
       202           Al  tau( 202) = (   0.5625000   0.1865000   0.7558657  )
       203           Al  tau( 203) = (   0.8125000   0.1885000   0.7558657  )
       204           Al  tau( 204) = (   0.6885000   0.3125000   0.7558657  )
       205           Al  tau( 205) = (   0.8125000   0.3125000   0.7558657  )
       206           Al  tau( 206) = (   0.9365000   0.3125000   0.7558657  )
       207           Al  tau( 207) = (   0.8125000   0.4365000   0.7558657  )
       208           Al  tau( 208) = (   0.5625000   0.4385000   0.7558657  )
       209           Al  tau( 209) = (   0.6875000   0.1875000   0.7548657  )
       210           Al  tau( 210) = (   0.9375000   0.4375000   0.7548657  )
       211           O   tau( 211) = (   0.8716350   0.0033650   0.6967307  )
       212           O   tau( 212) = (   0.7533650   0.1216350   0.6967307  )
       213           O   tau( 213) = (   0.6216350   0.2533650   0.6967307  )
       214           O   tau( 214) = (   0.5033650   0.3716350   0.6967307  )
       215           Al  tau( 215) = (   0.5000000   0.0000000   0.6933657  )
       216           Al  tau( 216) = (   0.7500000   0.0000000   0.6933657  )
       217           Al  tau( 217) = (   0.6250000   0.1250000   0.6933657  )
       218           Al  tau( 218) = (   0.8750000   0.1250000   0.6933657  )
       219           Al  tau( 219) = (   0.5000000   0.2500000   0.6933657  )
       220           Al  tau( 220) = (   0.7500000   0.2500000   0.6933657  )
       221           Al  tau( 221) = (   0.6250000   0.3750000   0.6933657  )
       222           Al  tau( 222) = (   0.8750000   0.3750000   0.6933657  )
       223           O   tau( 223) = (   0.9966350   0.1283650   0.6900007  )
       224           O   tau( 224) = (   0.8783650   0.2466350   0.6900007  )
       225           O   tau( 225) = (   0.7466350   0.3783650   0.6900007  )
       226           O   tau( 226) = (   0.6283650   0.4966350   0.6900007  )
       227           Al  tau( 227) = (   0.5625000   0.0625000   0.6318657  )
       228           Al  tau( 228) = (   0.8125000   0.3125000   0.6318657  )
       229           Al  tau( 229) = (   0.9375000   0.0615000   0.6308657  )
       230           Al  tau( 230) = (   0.6875000   0.0635000   0.6308657  )
       231           Al  tau( 231) = (   0.5635000   0.1875000   0.6308657  )
       232           Al  tau( 232) = (   0.6875000   0.1875000   0.6308657  )
       233           Al  tau( 233) = (   0.8115000   0.1875000   0.6308657  )
       234           Al  tau( 234) = (   0.6875000   0.3115000   0.6308657  )
       235           Al  tau( 235) = (   0.9375000   0.3135000   0.6308657  )
       236           Al  tau( 236) = (   0.5615000   0.4375000   0.6308657  )
       237           Al  tau( 237) = (   0.8135000   0.4375000   0.6308657  )
       238           Al  tau( 238) = (   0.9375000   0.4375000   0.6308657  )
       239           Al  tau( 239) = (   0.8125000   0.0625000   0.6298657  )
       240           Al  tau( 240) = (   0.5625000   0.3125000   0.6298657  )

     number of k points=     6  Methfessel-Paxton smearing, width (Ry)=  0.0100
                       cart. coord. in units 2pi/alat
        k(    1) = (   0.0000000   0.0000000   0.0000000), wk =   0.2500000
        k(    2) = (   0.0000000   0.5000000   0.0000000), wk =   0.5000000
        k(    3) = (   0.0000000  -1.0000000   0.0000000), wk =   0.2500000
        k(    4) = (  -0.5000000   0.0000000   0.0000000), wk =   0.2500000
        k(    5) = (  -0.5000000   0.5000000   0.0000000), wk =   0.5000000
        k(    6) = (  -0.5000000  -1.0000000   0.0000000), wk =   0.2500000

     Dense  grid:  4338017 G-vectors     FFT dimensions: ( 216, 108, 375)

     Smooth grid:  1097757 G-vectors     FFT dimensions: ( 135,  72, 240)

     Estimated max dynamical RAM per process >     874.04 MB

     Estimated total dynamical RAM >      51.21 GB

     Initial potential from superposition of free atoms

     starting charge     911.5968, renormalised to     912.0000

     negative rho (up, down):  3.638E-03 0.000E+00
     Starting wfcs are  960 randomized atomic wfcs

     total cpu time spent up to now is      112.0 secs

     Self-consistent Calculation

     iteration #  1     ecut=    50.00 Ry     beta= 0.40
     CG style diagonalization
     ethr =  1.00E-02,  avg # of iterations =  2.9

     negative rho (up, down):  6.028E-07 0.000E+00

     total cpu time spent up to now is     1445.8 secs

     total energy              =   -2678.52117850 Ry
     estimated scf accuracy    <     232.98954856 Ry

     iteration #  2     ecut=    50.00 Ry     beta= 0.40
     CG style diagonalization
     ethr =  1.00E-02,  avg # of iterations =  4.0

     negative rho (up, down):  1.754E-08 0.000E+00

     total cpu time spent up to now is     2870.0 secs

     total energy              =   -2686.01363809 Ry
     estimated scf accuracy    <     173.58497876 Ry

     iteration #  3     ecut=    50.00 Ry     beta= 0.40
     CG style diagonalization
     ethr =  1.00E-02,  avg # of iterations =  3.3

     total cpu time spent up to now is     3996.2 secs

     total energy              =   -2693.79869459 Ry
     estimated scf accuracy    <      61.75197558 Ry

     iteration #  4     ecut=    50.00 Ry     beta= 0.40
     CG style diagonalization
     ethr =  6.77E-03,  avg # of iterations =  3.0

     negative rho (up, down):  1.687E-02 0.000E+00

     total cpu time spent up to now is     4981.4 secs

     total energy              =   -2692.22545393 Ry
     estimated scf accuracy    <      31.36276392 Ry

     iteration #  5     ecut=    50.00 Ry     beta= 0.40
     CG style diagonalization
     ethr =  3.44E-03,  avg # of iterations =  3.7

     negative rho (up, down):  4.721E-03 0.000E+00

     total cpu time spent up to now is     6261.0 secs

     total energy              =   -2697.80637652 Ry
     estimated scf accuracy    <      17.14544587 Ry

     iteration #  6     ecut=    50.00 Ry     beta= 0.40
     CG style diagonalization
     ethr =  1.88E-03,  avg # of iterations =  4.2

     total cpu time spent up to now is     7787.3 secs

     total energy              =   -2699.75270700 Ry
     estimated scf accuracy    <      17.34869328 Ry

     iteration #  7     ecut=    50.00 Ry     beta= 0.40
     CG style diagonalization
     ethr =  1.88E-03,  avg # of iterations =  3.6

     total cpu time spent up to now is     9042.3 secs

     total energy              =   -2705.04118618 Ry
     estimated scf accuracy    <      19.09761599 Ry

     iteration #  8     ecut=    50.00 Ry     beta= 0.40
     CG style diagonalization
     ethr =  1.88E-03,  avg # of iterations =  3.3

     negative rho (up, down):  5.963E-04 0.000E+00

     total cpu time spent up to now is    10142.5 secs

     total energy              =   -2705.10871930 Ry
     estimated scf accuracy    <      19.32057945 Ry

     iteration #  9     ecut=    50.00 Ry     beta= 0.40
     CG style diagonalization
     ethr =  1.88E-03,  avg # of iterations =  3.0

     negative rho (up, down):  7.618E-04 0.000E+00

     total cpu time spent up to now is    11109.1 secs

     total energy              =   -2705.12363050 Ry
     estimated scf accuracy    <      12.69444742 Ry

     iteration # 10     ecut=    50.00 Ry     beta= 0.40
     CG style diagonalization
     ethr =  1.39E-03,  avg # of iterations =  3.0

     total cpu time spent up to now is    12083.6 secs

     total energy              =   -2704.07258656 Ry
     estimated scf accuracy    <       9.80641662 Ry

     iteration # 11     ecut=    50.00 Ry     beta= 0.40
     CG style diagonalization
     ethr =  1.08E-03,  avg # of iterations =  3.0

     total cpu time spent up to now is    13068.7 secs

     total energy              =   -2704.52522265 Ry
     estimated scf accuracy    <       4.65443096 Ry

     iteration # 12     ecut=    50.00 Ry     beta= 0.40
     CG style diagonalization
     ethr =  5.10E-04,  avg # of iterations =  3.4

     negative rho (up, down):  1.878E-05 0.000E+00

     total cpu time spent up to now is    14198.8 secs

     total energy              =   -2704.98991210 Ry
     estimated scf accuracy    <       3.52537907 Ry

     iteration # 13     ecut=    50.00 Ry     beta= 0.40
     CG style diagonalization
     ethr =  3.87E-04,  avg # of iterations =  3.5

     total cpu time spent up to now is    15393.7 secs

     total energy              =   -2705.37915760 Ry
     estimated scf accuracy    <       2.67913955 Ry

     iteration # 14     ecut=    50.00 Ry     beta= 0.40
     CG style diagonalization
     ethr =  2.94E-04,  avg # of iterations =  3.8

     total cpu time spent up to now is    16751.7 secs

     total energy              =   -2705.57725301 Ry
     estimated scf accuracy    <       5.80755808 Ry

     iteration # 15     ecut=    50.00 Ry     beta= 0.40
     CG style diagonalization
     ethr =  2.94E-04,  avg # of iterations =  3.3

     negative rho (up, down):  1.824E-04 0.000E+00

     total cpu time spent up to now is    17877.9 secs

     total energy              =   -2705.41811172 Ry
     estimated scf accuracy    <       4.99890975 Ry

     iteration # 16     ecut=    50.00 Ry     beta= 0.40
     CG style diagonalization
     ethr =  2.94E-04,  avg # of iterations =  3.1

     negative rho (up, down):  2.615E-04 0.000E+00

     total cpu time spent up to now is    18890.6 secs

     total energy              =   -2705.46786582 Ry
     estimated scf accuracy    <       2.84647231 Ry

     iteration # 17     ecut=    50.00 Ry     beta= 0.40
     CG style diagonalization
     ethr =  2.94E-04,  avg # of iterations =  3.0

     negative rho (up, down):  4.537E-05 0.000E+00

     total cpu time spent up to now is    19870.5 secs

     total energy              =   -2705.47522418 Ry
     estimated scf accuracy    <       1.65535259 Ry

     iteration # 18     ecut=    50.00 Ry     beta= 0.40
     CG style diagonalization
     ethr =  1.82E-04,  avg # of iterations =  3.1

     negative rho (up, down):  1.002E-01 0.000E+00

     total cpu time spent up to now is    20861.3 secs

     total energy              =   -2705.29603929 Ry
     estimated scf accuracy    <       1.51489154 Ry

     iteration # 19     ecut=    50.00 Ry     beta= 0.40
     CG style diagonalization
     ethr =  1.66E-04,  avg # of iterations =  3.0

     negative rho (up, down):  5.410E-01 0.000E+00

     total cpu time spent up to now is    21853.4 secs

     total energy              =   -2705.22283399 Ry
     estimated scf accuracy    <       0.60593300 Ry

     iteration # 20     ecut=    50.00 Ry     beta= 0.40
     CG style diagonalization
     c_bands:  2 eigenvalues not converged
     ethr =  6.64E-05,  avg # of iterations =  3.9

     negative rho (up, down):  3.835E-01 0.000E+00

     total cpu time spent up to now is    23217.6 secs

     total energy              =   -2705.28006615 Ry
     estimated scf accuracy    <       1.22152795 Ry

     iteration # 21     ecut=    50.00 Ry     beta= 0.40
     CG style diagonalization
     ethr =  6.64E-05,  avg # of iterations =  3.7

     negative rho (up, down):  1.793E-01 0.000E+00

     total cpu time spent up to now is    24513.1 secs

     total energy              =   -2705.31853655 Ry
     estimated scf accuracy    <       0.82167735 Ry

     iteration # 22     ecut=    50.00 Ry     beta= 0.40
     CG style diagonalization
     ethr =  6.64E-05,  avg # of iterations =  3.3

     negative rho (up, down):  3.051E-01 0.000E+00

     total cpu time spent up to now is    25621.6 secs

     total energy              =   -2705.28498725 Ry
     estimated scf accuracy    <       1.03397565 Ry

     iteration # 23     ecut=    50.00 Ry     beta= 0.40
     CG style diagonalization
     ethr =  6.64E-05,  avg # of iterations =  3.1

     negative rho (up, down):  5.621E-01 0.000E+00

     total cpu time spent up to now is    26634.5 secs

     total energy              =   -2705.17834152 Ry
     estimated scf accuracy    <       0.82314053 Ry

     iteration # 24     ecut=    50.00 Ry     beta= 0.40
     CG style diagonalization
     ethr =  6.64E-05,  avg # of iterations =  3.1

     negative rho (up, down):  3.997E-01 0.000E+00

     total cpu time spent up to now is    27652.9 secs

     total energy              =   -2705.19467449 Ry
     estimated scf accuracy    <       0.08688124 Ry

     iteration # 25     ecut=    50.00 Ry     beta= 0.40
     CG style diagonalization
     c_bands:  1 eigenvalues not converged
     c_bands:  2 eigenvalues not converged
     c_bands:  4 eigenvalues not converged
     c_bands:  1 eigenvalues not converged
     c_bands:  4 eigenvalues not converged
     ethr =  9.53E-06,  avg # of iterations =  5.7

     negative rho (up, down):  2.565E-01 0.000E+00

     total cpu time spent up to now is    29816.2 secs

     total energy              =   -2705.22092242 Ry
     estimated scf accuracy    <       0.05600496 Ry

     iteration # 26     ecut=    50.00 Ry     beta= 0.40
     CG style diagonalization
     c_bands:  3 eigenvalues not converged
     c_bands:  1 eigenvalues not converged
     c_bands:  2 eigenvalues not converged
     c_bands:  2 eigenvalues not converged
     c_bands:  1 eigenvalues not converged
     ethr =  6.14E-06,  avg # of iterations =  4.6

     negative rho (up, down):  2.263E-01 0.000E+00

     total cpu time spent up to now is    31506.4 secs

     total energy              =   -2705.23679831 Ry
     estimated scf accuracy    <       0.02858425 Ry

     iteration # 27     ecut=    50.00 Ry     beta= 0.40
     CG style diagonalization
     c_bands:  4 eigenvalues not converged
     c_bands:  2 eigenvalues not converged
     c_bands:  1 eigenvalues not converged
     c_bands:  3 eigenvalues not converged
     c_bands:  5 eigenvalues not converged
     ethr =  3.13E-06,  avg # of iterations =  4.4

     negative rho (up, down):  1.489E-01 0.000E+00

     total cpu time spent up to now is    33153.8 secs

     total energy              =   -2705.24019523 Ry
     estimated scf accuracy    <       0.01957197 Ry

     iteration # 28     ecut=    50.00 Ry     beta= 0.40
     CG style diagonalization
     c_bands:  3 eigenvalues not converged
     c_bands:  1 eigenvalues not converged
     c_bands:  1 eigenvalues not converged
     c_bands:  4 eigenvalues not converged
     c_bands:  3 eigenvalues not converged
     ethr =  2.15E-06,  avg # of iterations =  4.5

     negative rho (up, down):  1.017E-01 0.000E+00

     total cpu time spent up to now is    34829.3 secs

     total energy              =   -2705.24522374 Ry
     estimated scf accuracy    <       0.01396593 Ry

     iteration # 29     ecut=    50.00 Ry     beta= 0.40
     CG style diagonalization
     c_bands:  5 eigenvalues not converged
     c_bands:  2 eigenvalues not converged
     c_bands:  3 eigenvalues not converged
     ethr =  1.53E-06,  avg # of iterations =  3.9

     negative rho (up, down):  4.208E-02 0.000E+00

     total cpu time spent up to now is    36244.8 secs

     total energy              =   -2705.24702043 Ry
     estimated scf accuracy    <       0.00288874 Ry

     iteration # 30     ecut=    50.00 Ry     beta= 0.40
     CG style diagonalization
     c_bands:  2 eigenvalues not converged
     c_bands:  1 eigenvalues not converged
     ethr =  3.17E-07,  avg # of iterations =  4.9

     negative rho (up, down):  3.271E-02 0.000E+00

     total cpu time spent up to now is    38065.4 secs

     total energy              =   -2705.24921728 Ry
     estimated scf accuracy    <       0.00034097 Ry

     iteration # 31     ecut=    50.00 Ry     beta= 0.40
     CG style diagonalization
     c_bands:  1 eigenvalues not converged
     c_bands:  1 eigenvalues not converged
     ethr =  3.74E-08,  avg # of iterations =  5.9

     negative rho (up, down):  2.201E-02 0.000E+00

     total cpu time spent up to now is    40356.2 secs

     total energy              =   -2705.25017007 Ry
     estimated scf accuracy    <       0.00024291 Ry

     iteration # 32     ecut=    50.00 Ry     beta= 0.40
     CG style diagonalization
     c_bands:  1 eigenvalues not converged
     ethr =  2.66E-08,  avg # of iterations =  4.6

     negative rho (up, down):  4.486E-03 0.000E+00

     total cpu time spent up to now is    42049.7 secs

     End of self-consistent calculation

          k = 0.0000 0.0000 0.0000 (137301 PWs)   bands (ev):

   -25.3743 -25.0775 -25.0775 -24.5763 -24.4454 -24.4073 -24.4064 -24.4063
   -24.2648 -24.1079 -24.0822 -24.0821 -24.0065 -24.0064 -23.8632 -23.8357
   -23.7510 -23.7476 -23.7476 -23.7383 -23.6708 -23.6708 -23.6526 -23.6314
   -23.6149 -23.6037 -23.5892 -23.5190 -23.4372 -23.4371 -23.3897 -23.3897
   -23.3638 -23.3638 -23.2698 -23.2682 -23.1667 -23.1666 -23.1303 -23.0573
   -23.0386 -22.9529 -22.9529 -22.8174 -22.7631 -22.6001 -22.6001 -22.4811
   -21.4948 -21.3458 -21.3457 -21.0457 -20.9981 -20.9764 -20.9763 -20.9703
   -20.9617 -20.9327 -20.9216 -20.9214 -20.7335 -20.4642 -20.4642 -20.2799
   -13.4085 -13.3144 -13.2870 -12.9155 -12.9155 -12.8522 -12.8522 -12.7986
   -12.7928 -12.7928 -12.7477 -12.6341 -12.5909 -12.4298 -12.4298 -12.3672
   -12.3672 -12.3375 -12.3375 -12.2473 -12.2068 -12.1882 -12.1277 -12.0995
   -12.0995 -11.9772 -11.9380 -11.9380 -11.9342 -11.8321 -11.8016 -11.8016
   -11.7915 -11.7065 -11.7065 -11.6841 -11.6174 -11.5623 -11.3705 -11.3374
   -11.3277 -11.3277 -11.2261 -11.2161 -11.1959 -11.1069 -11.0924 -11.0924
   -11.0318 -11.0014 -10.9627 -10.9627 -10.9258 -10.8524 -10.8523 -10.8088
   -10.7673 -10.6756 -10.5727 -10.5727 -10.5580 -10.5075 -10.4238 -10.3697
   -10.3665 -10.2817 -10.2816 -10.2118 -10.2065 -10.2065 -10.1202 -10.0742
   -10.0218 -10.0138  -9.9945  -9.9937  -9.9896  -9.9896  -9.8793  -9.8793
    -9.7846  -9.7845  -9.6861  -9.6861  -9.6414  -9.5870  -9.5870  -9.5533
    -9.5190  -9.5190  -9.3849  -9.3675  -9.3650  -9.3650  -9.3300  -9.3102
    -9.3102  -9.2876  -9.2776  -9.2493  -9.2454  -9.2387  -9.2225  -9.2225
    -9.1310  -9.1310  -9.1036  -9.0002  -8.9913  -8.9460  -8.9460  -8.9313
    -8.8924  -8.8110  -8.8110  -8.7758  -8.7592  -8.7591  -8.6736  -8.6735
    -8.6512  -8.6462  -8.6293  -8.5625  -8.5082  -8.5026  -8.5026  -8.4161
    -8.4027  -8.2969  -8.2856  -8.2855  -8.2397  -8.2397  -8.2246  -8.2051
    -8.2051  -8.1348  -8.0762  -7.9955  -7.9954  -7.9852  -7.9451  -7.9321
    -7.8831  -7.8831  -7.8730  -7.8437  -7.8437  -7.6729  -7.5927  -7.5449
    -7.5233  -7.5233  -7.5156  -7.5155  -7.4895  -7.4855  -7.3274  -7.2925
    -7.1928  -6.9650  -6.8382  -6.6056  -6.5751  -6.5750  -6.2734  -6.2710
    -6.2710  -6.1019  -6.1018  -5.8970  -5.8969  -5.7849  -5.7759  -5.6373
    -5.6101  -5.6100  -5.5044  -5.4438  -5.3998  -5.3997  -5.3887  -5.3879
    -5.3591  -5.3591  -5.3500  -5.3154  -5.0436  -5.0422  -5.0421  -4.8970
    -3.3207  -2.7667  -2.7443  -2.7443  -2.3292  -2.3292  -2.2627  -2.1292
    -1.3972  -1.3029  -1.3028  -1.2545  -1.0157  -0.9909  -0.9878  -0.9182
    -0.9181  -0.6696  -0.2488  -0.2488  -0.2028  -0.2028  -0.1833   0.1160
     0.1939   0.1939   0.5613   0.8247   0.8780   0.9614   0.9614   1.1067
     1.2675   1.2675   1.3032   1.3357   1.5137   1.6890   1.6979   1.7120
     1.7121   1.7700   1.7700   1.8893   1.9572   1.9874   2.0048   2.0201
     2.0201   2.1527   2.1527   2.1720   2.1720   2.1920   2.4500   2.4731
     2.5907   2.6221   2.6692   2.6692   2.6749   2.7508   2.7508   2.7589
     2.8468   2.8468   2.9271   2.9530   2.9705   2.9705   2.9894   2.9894
     3.0499   3.1074   3.1408   3.3475   3.3518   3.3518   3.3764   3.4913
     3.4999   3.4999   3.5065   3.5578   3.5579   3.6002   3.6855   3.7568
     3.7671   3.7671   3.8173   3.8313   3.8313   3.8916   3.8916   3.9263
     3.9930   3.9930   3.9967   3.9977   3.9995   4.0493   4.0570   4.1092
     4.1113   4.1113   4.2349   4.2755   4.2755   4.2810   4.3335   4.3893
     4.3893   4.4069   4.5056   4.5406   4.5406   4.6099   4.6099   4.6162
     4.6426   4.7126   4.7210   4.7339   4.7401   4.7401   4.7587   4.7774
     4.7925   4.8239   4.8493   4.9029   4.9713   5.0101   5.0106   5.0106
     5.0543   5.0543   5.0803   5.0868   5.1828   5.1828   5.2093   5.2418
     5.2518   5.2857   5.2857   5.3396   5.3622   5.3622   5.3950   5.4151
     5.4619   5.4621   5.4985   5.4985   5.5162   5.6124   5.6124   5.6895
     5.6895   5.7203   5.7340   5.8450   5.8450   5.8525   5.9078   5.9078
     6.0101   6.0220   6.0272   6.0272   6.0686   6.1377   6.1378   6.1388
     6.1495   6.2287   6.2440   6.2440   6.2842   6.3633   6.3632   6.3693
     6.4273   6.4468   6.4717   6.4717   6.4776   6.4901   6.5142   6.5149
     6.5328   6.5328   6.5614   6.6119   6.6119   6.6189   6.7154   6.7307
     6.7307   6.7679   6.7751   6.8069   6.8224   6.9170   6.9197   6.9644
     6.9654   6.9894   6.9899   7.0490   7.0874   7.0952   7.0956   7.2179
     7.2185   7.2425   7.2994   7.3279   7.3287   7.3817   7.4182   7.4337
     7.4345   7.5419   7.5656   7.5660   7.5697   7.6219   7.6265   7.6272
     7.6857   7.7378   7.7788   7.7860   7.7872   7.8458   7.8535   7.8543
     7.8544   7.9550   7.9675   7.9680   7.9821   8.0249   8.0251   8.1109
     8.1282   8.2264   8.2214   8.2560   8.2915   8.2927   8.3085   8.3272
     8.3283   8.3504   8.3555   8.3624   8.3729   8.3763   8.4368   8.4662
     8.4668   8.5634   8.5673   8.6551   8.6560   8.6941   8.7029   8.7738
     8.7767   8.9361   8.9376   8.9668   8.9724   8.9738   8.9785   9.0310
     9.0325   9.0851   9.0861   9.1658   9.2494   9.2544   9.3712   9.4642
     9.4767   9.4856  10.1010

          k = 0.0000 0.5000 0.0000 (137244 PWs)   bands (ev):

   -25.2975 -25.0233 -25.0028 -24.7501 -24.5265 -24.5194 -24.5061 -24.3438
   -24.2393 -24.2270 -24.2168 -24.0006 -23.9345 -23.8935 -23.8919 -23.8598
   -23.8261 -23.7399 -23.7027 -23.6953 -23.6880 -23.6617 -23.6285 -23.5864
   -23.5528 -23.4984 -23.4845 -23.4421 -23.4376 -23.4124 -23.4071 -23.3987
   -23.3594 -23.3541 -23.3245 -23.2320 -23.2163 -23.2150 -23.1887 -23.0970
   -23.0134 -22.9959 -22.8825 -22.8776 -22.6953 -22.6603 -22.5788 -22.5160
   -21.4559 -21.3233 -21.3172 -21.1852 -21.0995 -21.0795 -20.9841 -20.9671
   -20.9303 -20.9274 -20.8289 -20.7925 -20.6363 -20.4896 -20.4850 -20.3299
   -13.2761 -13.2020 -13.1506 -12.9435 -12.9067 -12.8248 -12.7933 -12.6967
   -12.6643 -12.6643 -12.5545 -12.5544 -12.5243 -12.4858 -12.4727 -12.4576
   -12.4216 -12.3970 -12.3750 -12.3593 -12.3225 -12.2791 -12.2220 -12.1785
   -12.1646 -12.1601 -12.1378 -12.0251 -11.9903 -11.9128 -11.8937 -11.8860
   -11.8544 -11.8103 -11.6849 -11.6300 -11.6263 -11.5596 -11.5217 -11.4258
   -11.3876 -11.3810 -11.3573 -11.2676 -11.1929 -11.1264 -11.0478 -10.9826
   -10.9793 -10.9595 -10.9167 -10.8892 -10.8821 -10.8469 -10.7755 -10.6938
   -10.6886 -10.5901 -10.5881 -10.5470 -10.5365 -10.4502 -10.4502 -10.3790
   -10.3215 -10.3025 -10.2941 -10.2743 -10.2029 -10.1233 -10.1155  -9.9920
    -9.9627  -9.9586  -9.9431  -9.9379  -9.8702  -9.8667  -9.8287  -9.7985
    -9.7358  -9.7032  -9.6911  -9.6876  -9.6488  -9.6465  -9.6118  -9.6097
    -9.5418  -9.5213  -9.5018  -9.4647  -9.4296  -9.3751  -9.3567  -9.3567
    -9.3394  -9.3327  -9.2857  -9.2212  -9.1931  -9.1762  -9.1318  -9.0895
    -9.0824  -9.0798  -9.0494  -9.0237  -8.9816  -8.9564  -8.9418  -8.9417
    -8.9094  -8.9083  -8.8812  -8.8651  -8.8246  -8.7816  -8.7241  -8.6688
    -8.6639  -8.6355  -8.5938  -8.5863  -8.5679  -8.4835  -8.4255  -8.3839
    -8.3493  -8.3224  -8.3088  -8.2914  -8.2557  -8.2113  -8.1868  -8.1581
    -8.1485  -8.1100  -8.0787  -8.0646  -8.0426  -8.0351  -7.9663  -7.9444
    -7.9293  -7.8903  -7.7800  -7.7636  -7.7311  -7.7294  -7.6773  -7.6476
    -7.6358  -7.6345  -7.5719  -7.5574  -7.3848  -7.3775  -7.3258  -7.2886
    -7.0114  -6.9618  -6.7754  -6.7446  -6.7227  -6.5357  -6.3143  -6.2937
    -6.2729  -5.9580  -5.8918  -5.8814  -5.8663  -5.8004  -5.7021  -5.7001
    -5.6449  -5.5748  -5.5329  -5.5009  -5.4850  -5.4279  -5.4046  -5.4007
    -5.3709  -5.3372  -5.3228  -5.3220  -5.1018  -5.0495  -4.9647  -4.9236
    -3.1336  -2.7146  -2.6786  -2.6269  -2.4007  -2.3507  -2.2357  -2.1524
    -1.5011  -1.3915  -1.3346  -1.1469  -0.9762  -0.9328  -0.8776  -0.8675
    -0.8097  -0.7493  -0.1229  -0.1087  -0.1024  -0.0877  -0.0836   0.2549
     0.2651   0.3751   0.4730   0.6165   0.7594   0.7817   0.8833   0.9172
     1.1064   1.1071   1.2524   1.2787   1.3678   1.4002   1.4551   1.5203
     1.5824   1.6252   1.6570   1.8133   1.8282   1.9043   1.9323   1.9954
     2.0297   2.0789   2.0894   2.1452   2.1844   2.2082   2.2888   2.3491
     2.3784   2.4745   2.4941   2.5347   2.5664   2.6189   2.6478   2.6506
     2.6975   2.7112   2.7854   2.8198   2.9527   3.0147   3.0459   3.0760
     3.1151   3.1260   3.1365   3.1973   3.2556   3.3473   3.3517   3.4224
     3.4790   3.5720   3.5773   3.5900   3.6650   3.6766   3.6890   3.7107
     3.7147   3.7240   3.7881   3.8550   3.9123   3.9692   4.0051   4.0581
     4.0617   4.0891   4.1101   4.1457   4.1569   4.1708   4.1859   4.2257
     4.2381   4.3103   4.3587   4.3746   4.3761   4.3887   4.3982   4.4201
     4.4433   4.4554   4.5045   4.5046   4.5057   4.5300   4.5591   4.5679
     4.6034   4.6229   4.6782   4.6860   4.7444   4.7857   4.8250   4.9757
     4.9919   5.0046   5.0250   5.0488   5.0675   5.0680   5.0704   5.1452
     5.1535   5.1967   5.2093   5.2436   5.2824   5.2992   5.3179   5.3278
     5.3586   5.3660   5.4077   5.4161   5.4188   5.4460   5.4934   5.5022
     5.5342   5.5612   5.5886   5.6053   5.6423   5.6624   5.7300   5.7317
     5.7415   5.7967   5.8204   5.8336   5.8398   5.8670   5.8924   5.8946
     5.9549   5.9662   5.9686   6.0076   6.0367   6.1044   6.1268   6.1544
     6.1686   6.1690   6.2131   6.2180   6.2197   6.2533   6.2959   6.3389
     6.3420   6.3895   6.4016   6.4505   6.4571   6.4964   6.5265   6.5411
     6.6400   6.6469   6.6527   6.7024   6.7352   6.7555   6.7735   6.8252
     6.8299   6.8428   6.8887   6.9380   6.9434   6.9576   7.0519   7.0579
     7.0688   7.1209   7.1499   7.1722   7.1948   7.1985   7.2125   7.2140
     7.2497   7.2530   7.3109   7.3233   7.3726   7.3743   7.3788   7.4387
     7.4567   7.4709   7.4840   7.5477   7.5853   7.6041   7.6305   7.6356
     7.6503   7.6504   7.7139   7.7449   7.7828   7.7866   7.8174   7.8717
     7.9015   7.9023   7.9252   7.9815   8.0306   8.0706   8.0813   8.0942
     8.1484   8.1598   8.2086   8.2347   8.2432   8.2548   8.2668   8.3425
     8.3592   8.3796   8.3833   8.4059   8.4275   8.4950   8.5037   8.5070
     8.5184   8.5868   8.6338   8.6436   8.6521   8.6530   8.6851   8.7229
     8.8050   8.8030   8.8240   8.8431   8.9024   8.9144   8.9345   8.9858
     8.9998   9.0668   9.1350   9.1295   9.2412   9.2390   9.2434   9.3197
     9.3296   9.3417   9.4897

          k = 0.0000-1.0000 0.0000 (137302 PWs)   bands (ev):

   -25.0775 -25.0775 -24.9263 -24.8277 -24.7732 -24.6655 -24.4064 -24.4063
   -24.2315 -24.1323 -24.1110 -24.0821 -24.0821 -24.0064 -24.0064 -23.9058
   -23.7476 -23.7476 -23.6708 -23.6707 -23.5643 -23.5273 -23.4888 -23.4847
   -23.4375 -23.4372 -23.4372 -23.4132 -23.4097 -23.3995 -23.3897 -23.3897
   -23.3827 -23.3638 -23.3638 -23.3576 -23.3436 -23.2881 -23.1667 -23.1667
   -23.0113 -22.9529 -22.9529 -22.8204 -22.7203 -22.6001 -22.6001 -22.5770
   -21.3458 -21.3457 -21.2821 -21.2713 -21.1796 -21.1645 -20.9763 -20.9763
   -20.9215 -20.9215 -20.7634 -20.7177 -20.5244 -20.5125 -20.4642 -20.4642
   -12.9155 -12.9155 -12.8771 -12.8522 -12.8522 -12.7956 -12.7928 -12.7928
   -12.7442 -12.7298 -12.6856 -12.6831 -12.5722 -12.5396 -12.4611 -12.4355
   -12.4299 -12.4298 -12.4091 -12.3672 -12.3672 -12.3375 -12.3375 -12.2757
   -12.1915 -12.0995 -12.0995 -12.0937 -12.0169 -11.9380 -11.9380 -11.9336
   -11.9321 -11.8695 -11.8016 -11.8016 -11.7846 -11.7065 -11.7065 -11.5176
   -11.3278 -11.3277 -11.2355 -11.0924 -11.0924 -11.0796 -11.0486 -11.0478
   -11.0220 -11.0106 -10.9627 -10.9627 -10.8524 -10.8523 -10.7963 -10.7936
   -10.7556 -10.5835 -10.5727 -10.5726 -10.5322 -10.3892 -10.3207 -10.2817
   -10.2816 -10.2065 -10.2065 -10.1322 -10.0660 -10.0419  -9.9896  -9.9896
    -9.9435  -9.9312  -9.9160  -9.8793  -9.8793  -9.7846  -9.7845  -9.7544
    -9.7537  -9.6958  -9.6861  -9.6861  -9.6543  -9.6160  -9.6041  -9.5975
    -9.5870  -9.5870  -9.5190  -9.5190  -9.4020  -9.3650  -9.3650  -9.3102
    -9.3102  -9.2541  -9.2443  -9.2225  -9.2225  -9.2107  -9.1647  -9.1349
    -9.1310  -9.1310  -9.1220  -9.1073  -8.9949  -8.9868  -8.9590  -8.9460
    -8.9460  -8.8980  -8.8110  -8.8110  -8.8060  -8.7592  -8.7592  -8.7228
    -8.6736  -8.6735  -8.6000  -8.5228  -8.5026  -8.5026  -8.4423  -8.4419
    -8.4128  -8.3146  -8.2856  -8.2855  -8.2397  -8.2397  -8.2051  -8.2051
    -8.1658  -8.1416  -8.0103  -7.9978  -7.9955  -7.9955  -7.9488  -7.9077
    -7.9035  -7.8831  -7.8831  -7.8437  -7.8437  -7.8254  -7.7130  -7.5332
    -7.5233  -7.5233  -7.5156  -7.5155  -7.4779  -7.3999  -7.3277  -7.2940
    -7.0904  -7.0868  -7.0075  -6.5751  -6.5751  -6.5360  -6.2710  -6.2710
    -6.1018  -6.1018  -5.8970  -5.8969  -5.7386  -5.7384  -5.6778  -5.6500
    -5.6495  -5.6150  -5.6101  -5.6100  -5.5273  -5.4554  -5.3998  -5.3998
    -5.3591  -5.3591  -5.3283  -5.2808  -5.1154  -5.0422  -5.0421  -4.8557
    -2.7443  -2.7443  -2.6515  -2.6146  -2.3894  -2.3292  -2.3292  -2.1537
    -1.6512  -1.3298  -1.3029  -1.3028  -0.9182  -0.9181  -0.8904  -0.8549
    -0.2488  -0.2488  -0.2028  -0.2028   0.0835   0.1363   0.1444   0.1468
     0.1939   0.1939   0.3381   0.3680   0.6177   0.6784   0.7723   0.7852
     0.8936   0.9614   0.9615   1.0370   1.2675   1.2675   1.5129   1.5572
     1.5770   1.5881   1.6481   1.7120   1.7121   1.7700   1.7700   1.8556
     2.0200   2.0201   2.0927   2.1527   2.1527   2.1720   2.1720   2.2019
     2.2324   2.3390   2.4092   2.4761   2.5217   2.5846   2.6692   2.6692
     2.7508   2.7508   2.7701   2.8468   2.8468   2.9619   2.9705   2.9705
     2.9706   2.9894   2.9894   3.0651   3.0810   3.2129   3.3518   3.3518
     3.4362   3.4530   3.4999   3.4999   3.5579   3.5579   3.7672   3.7672
     3.8313   3.8313   3.8916   3.8916   3.9930   3.9930   4.0526   4.1113
     4.1113   4.1162   4.1706   4.1904   4.2732   4.2755   4.2755   4.3153
     4.3197   4.3632   4.3862   4.3893   4.3893   4.4106   4.5098   4.5127
     4.5267   4.5406   4.5406   4.5534   4.5675   4.6099   4.6099   4.6346
     4.6403   4.7401   4.7401   4.8366   4.9254   5.0106   5.0107   5.0193
     5.0543   5.0543   5.1447   5.1531   5.1828   5.1828   5.2035   5.2285
     5.2857   5.2857   5.3121   5.3311   5.3487   5.3512   5.3621   5.3622
     5.4139   5.4706   5.4985   5.4985   5.5169   5.5386   5.5544   5.5816
     5.5859   5.5936   5.6122   5.6124   5.6124   5.6265   5.6504   5.6895
     5.6895   5.8222   5.8450   5.8450   5.9078   5.9078   5.9128   6.0271
     6.0271   6.0502   6.0877   6.1201   6.1377   6.1377   6.1969   6.2029
     6.2247   6.2440   6.2440   6.2946   6.3593   6.3632   6.3633   6.3988
     6.4446   6.4718   6.4718   6.4856   6.4900   6.5229   6.5236   6.5328
     6.5328   6.5873   6.6119   6.6119   6.6615   6.7042   6.7307   6.7307
     6.7807   6.9649   6.9654   6.9711   6.9886   6.9893   7.0225   7.0265
     7.0956   7.0962   7.2051   7.2088   7.2176   7.2183   7.2511   7.2585
     7.3072   7.3276   7.3285   7.3583   7.3745   7.3913   7.3955   7.4332
     7.4341   7.4834   7.5162   7.5658   7.5663   7.6100   7.6112   7.6262
     7.6278   7.7442   7.7870   7.7881   7.8324   7.8544   7.8545   7.8565
     7.8785   7.9671   7.9690   8.0256   8.0258   8.0305   8.0814   8.2670
     8.2788   8.2854   8.2945   8.2956   8.2982   8.3128   8.3285   8.3337
     8.3392   8.3756   8.3793   8.4396   8.4668   8.4672   8.4745   8.5229
     8.5352   8.5424   8.5609   8.5672   8.5723   8.6545   8.6587   8.7278
     8.7677   8.7786   8.7839   8.8422   8.8493   8.8664   8.9447   8.9485
     8.9764   8.9781   8.9842   9.0111   9.0837   9.1014   9.1329   9.1553
     9.1648   9.5649   9.7506

          k =-0.5000 0.0000 0.0000 (137248 PWs)   bands (ev):

   -25.2975 -25.2975 -24.7501 -24.7501 -24.5265 -24.5265 -24.3438 -24.3437
   -24.2168 -24.2168 -24.0007 -24.0006 -23.8935 -23.8934 -23.8919 -23.8919
   -23.8598 -23.8598 -23.7028 -23.7027 -23.6881 -23.6880 -23.6617 -23.6617
   -23.6285 -23.6285 -23.4984 -23.4984 -23.4845 -23.4845 -23.4124 -23.4124
   -23.3245 -23.3244 -23.2321 -23.2320 -23.1888 -23.1887 -23.0970 -23.0970
   -23.0134 -23.0134 -22.8777 -22.8776 -22.6954 -22.6953 -22.5160 -22.5159
   -21.4559 -21.4559 -21.1853 -21.1852 -20.9841 -20.9841 -20.9672 -20.9671
   -20.9303 -20.9303 -20.9274 -20.9273 -20.6363 -20.6362 -20.3299 -20.3298
   -13.2761 -13.2761 -13.2020 -13.2020 -13.1507 -13.1506 -12.6967 -12.6967
   -12.6643 -12.6642 -12.5243 -12.5243 -12.4727 -12.4727 -12.4576 -12.4576
   -12.3593 -12.3592 -12.3225 -12.3225 -12.1646 -12.1646 -12.1378 -12.1377
   -12.0251 -12.0251 -11.9903 -11.9903 -11.9128 -11.9128 -11.8544 -11.8543
   -11.8103 -11.8103 -11.6264 -11.6263 -11.5596 -11.5596 -11.4258 -11.4258
   -11.3876 -11.3876 -11.3573 -11.3573 -11.1264 -11.1264 -11.0478 -11.0478
   -10.9167 -10.9167 -10.8892 -10.8891 -10.8469 -10.8469 -10.6938 -10.6938
   -10.6886 -10.6886 -10.5901 -10.5901 -10.5470 -10.5470 -10.5365 -10.5365
   -10.3215 -10.3215 -10.2743 -10.2742 -10.2030 -10.2029 -10.1233 -10.1233
    -9.9920  -9.9920  -9.9627  -9.9627  -9.9379  -9.9379  -9.8702  -9.8702
    -9.7985  -9.7985  -9.6911  -9.6911  -9.6466  -9.6465  -9.6097  -9.6097
    -9.5214  -9.5214  -9.4647  -9.4647  -9.4296  -9.4295  -9.3567  -9.3567
    -9.3395  -9.3394  -9.3327  -9.3327  -9.1318  -9.1318  -9.0798  -9.0798
    -9.0495  -9.0494  -9.0237  -9.0237  -8.9564  -8.9564  -8.9417  -8.9417
    -8.8812  -8.8812  -8.8651  -8.8651  -8.7241  -8.7240  -8.6639  -8.6639
    -8.6356  -8.6355  -8.5863  -8.5863  -8.5679  -8.5679  -8.4255  -8.4255
    -8.3224  -8.3224  -8.2914  -8.2913  -8.2557  -8.2557  -8.1868  -8.1868
    -8.1486  -8.1485  -8.0787  -8.0786  -8.0426  -8.0426  -7.9444  -7.9444
    -7.8904  -7.8903  -7.7636  -7.7636  -7.7311  -7.7311  -7.6358  -7.6358
    -7.6346  -7.6345  -7.5719  -7.5719  -7.3849  -7.3848  -7.3258  -7.3258
    -6.9618  -6.9617  -6.7754  -6.7754  -6.5357  -6.5357  -6.3143  -6.3142
    -6.2729  -6.2729  -5.8918  -5.8918  -5.8664  -5.8663  -5.7021  -5.7021
    -5.5748  -5.5748  -5.4850  -5.4850  -5.4046  -5.4045  -5.4008  -5.4007
    -5.3709  -5.3709  -5.3228  -5.3228  -5.0495  -5.0495  -4.9647  -4.9647
    -3.1337  -3.1336  -2.6269  -2.6269  -2.4008  -2.4007  -2.1524  -2.1524
    -1.3915  -1.3914  -1.1469  -1.1468  -0.9763  -0.9762  -0.9328  -0.9328
    -0.8097  -0.8096  -0.7494  -0.7493  -0.1024  -0.1024   0.3751   0.3751
     0.4730   0.4731   0.6165   0.6165   0.7594   0.7594   0.7817   0.7817
     1.2524   1.2524   1.2787   1.2787   1.5824   1.5824   1.6570   1.6570
     1.8133   1.8134   1.8282   1.8282   1.9954   1.9954   2.1452   2.1452
     2.1844   2.1844   2.2082   2.2082   2.2888   2.2888   2.3784   2.3785
     2.4745   2.4745   2.4941   2.4941   2.6975   2.6975   2.7112   2.7112
     2.7854   2.7854   3.0147   3.0147   3.0459   3.0459   3.0760   3.0760
     3.1260   3.1260   3.2556   3.2556   3.3473   3.3473   3.4224   3.4225
     3.4790   3.4790   3.5773   3.5773   3.6766   3.6766   3.6890   3.6890
     3.7147   3.7147   3.7240   3.7240   3.7881   3.7881   3.9123   3.9123
     3.9692   3.9692   4.0051   4.0051   4.0891   4.0891   4.1569   4.1569
     4.1709   4.1709   4.2257   4.2257   4.2381   4.2382   4.3746   4.3746
     4.3982   4.3982   4.4201   4.4201   4.4553   4.4554   4.5057   4.5057
     4.5591   4.5591   4.6034   4.6035   4.7444   4.7444   4.7857   4.7857
     4.9757   4.9758   5.0046   5.0046   5.0488   5.0488   5.0675   5.0675
     5.1452   5.1452   5.1967   5.1968   5.2093   5.2093   5.2992   5.2992
     5.3278   5.3278   5.3586   5.3586   5.4077   5.4077   5.4460   5.4460
     5.4934   5.4934   5.5022   5.5022   5.5886   5.5887   5.7317   5.7317
     5.7967   5.7967   5.8204   5.8204   5.8336   5.8337   5.8670   5.8670
     5.8924   5.8924   5.9549   5.9550   5.9661   5.9662   6.0076   6.0076
     6.1268   6.1268   6.1690   6.1690   6.2131   6.2132   6.2180   6.2180
     6.2959   6.2959   6.3895   6.3895   6.4571   6.4571   6.5265   6.5265
     6.6400   6.6400   6.6526   6.6527   6.7024   6.7025   6.7352   6.7352
     6.7556   6.7555   6.8251   6.8252   6.8886   6.8887   6.9445   6.9449
     7.0684   7.0694   7.1490   7.1495   7.1725   7.1728   7.1949   7.1952
     7.2149   7.2152   7.3231   7.3242   7.3725   7.3735   7.3781   7.3784
     7.4834   7.4842   7.5464   7.5470   7.5837   7.5838   7.6306   7.6309
     7.6487   7.6491   7.7825   7.7827   7.7864   7.7867   7.8178   7.8181
     7.8723   7.8733   7.9033   7.9041   8.0284   8.0299   8.0902   8.0914
     8.1592   8.1602   8.2317   8.2363   8.2512   8.2516   8.2655   8.2663
     8.3577   8.3586   8.3829   8.3870   8.4265   8.4290   8.5041   8.5051
     8.5828   8.5842   8.6456   8.6422   8.6495   8.6506   8.6944   8.6941
     8.8048   8.8144   8.8338   8.8427   8.9197   8.9214   8.9257   8.9590
     9.1315   9.1430   9.2021   9.2254   9.2872   9.3223   9.3273   9.3235
     9.3227   9.5159   9.5452

          k =-0.5000 0.5000 0.0000 (137136 PWs)   bands (ev):

   -25.2261 -25.2202 -24.7910 -24.6963 -24.6535 -24.5386 -24.4999 -24.4839
   -24.1662 -24.1524 -24.1187 -24.0659 -24.0609 -23.8909 -23.8392 -23.7946
   -23.7842 -23.7554 -23.7029 -23.6932 -23.6750 -23.6625 -23.5811 -23.5767
   -23.5728 -23.5568 -23.5434 -23.5072 -23.4613 -23.4591 -23.4211 -23.3705
   -23.3318 -23.2784 -23.2678 -23.2496 -23.2239 -23.2127 -23.1524 -23.1449
   -23.0195 -22.9645 -22.9479 -22.8159 -22.7410 -22.6368 -22.5659 -22.5277
   -21.4216 -21.4185 -21.2054 -21.2003 -21.1085 -21.0903 -21.0393 -21.0130
   -20.8858 -20.8513 -20.8389 -20.8024 -20.6094 -20.6001 -20.3740 -20.3731
   -13.2342 -13.1412 -13.1215 -13.0796 -13.0461 -12.9441 -12.6402 -12.6084
   -12.5764 -12.5704 -12.5652 -12.5549 -12.4946 -12.4837 -12.4821 -12.4723
   -12.4678 -12.4583 -12.3986 -12.3519 -12.3492 -12.2497 -12.2230 -12.1235
   -12.1202 -12.1017 -12.0828 -12.0820 -11.9890 -11.9812 -11.9362 -11.8979
   -11.8170 -11.8170 -11.7561 -11.7443 -11.7208 -11.6429 -11.5247 -11.5004
   -11.3948 -11.3018 -11.2250 -11.0984 -11.0740 -11.0459 -11.0269 -11.0083
   -10.9979 -10.9978 -10.9554 -10.9169 -10.8400 -10.8213 -10.7906 -10.7892
   -10.6955 -10.6570 -10.6263 -10.5297 -10.5060 -10.4701 -10.4425 -10.3812
   -10.3276 -10.3099 -10.2568 -10.1936 -10.1784 -10.1441 -10.0734 -10.0644
   -10.0427 -10.0150  -9.9546  -9.9371  -9.9339  -9.9011  -9.8479  -9.7609
    -9.7332  -9.6794  -9.6610  -9.6276  -9.6157  -9.6010  -9.5697  -9.5610
    -9.5530  -9.5033  -9.4681  -9.4398  -9.4189  -9.3905  -9.3868  -9.3755
    -9.3729  -9.3696  -9.3125  -9.2413  -9.2212  -9.2084  -9.2014  -9.1585
    -9.1346  -9.1258  -8.9986  -8.9704  -8.9499  -8.9464  -8.9438  -8.9059
    -8.9017  -8.8912  -8.8854  -8.8261  -8.7645  -8.7196  -8.7079  -8.6612
    -8.6302  -8.5969  -8.5932  -8.5630  -8.5044  -8.4619  -8.4496  -8.4310
    -8.4186  -8.3826  -8.3604  -8.2999  -8.2840  -8.2400  -8.2050  -8.2029
    -8.1525  -8.1253  -8.0602  -8.0476  -8.0403  -7.9541  -7.9281  -7.9244
    -7.9136  -7.9040  -7.8797  -7.8660  -7.8527  -7.6763  -7.6376  -7.6078
    -7.5826  -7.5340  -7.5145  -7.4777  -7.4386  -7.3705  -7.2980  -7.2919
    -7.1271  -7.1097  -6.9814  -6.5738  -6.5632  -6.3750  -6.3140  -6.3023
    -6.2344  -6.0985  -5.9548  -5.9252  -5.8476  -5.8001  -5.7660  -5.6741
    -5.6532  -5.5233  -5.4774  -5.4743  -5.4731  -5.4636  -5.4285  -5.4231
    -5.3757  -5.3264  -5.3162  -5.3097  -5.0861  -5.0772  -5.0064  -4.8742
    -3.0147  -2.9805  -2.5261  -2.4940  -2.4590  -2.4569  -2.2510  -2.1155
    -1.5094  -1.3472  -1.3050  -1.2713  -0.9203  -0.9101  -0.7881  -0.7732
    -0.7351  -0.6986  -0.6288  -0.6134  -0.0218  -0.0203   0.4207   0.4583
     0.5118   0.5370   0.5499   0.5720   0.6440   0.7212   0.8859   0.9780
     0.9809   1.0118   1.0251   1.0472   1.2806   1.3024   1.5041   1.6322
     1.6397   1.7402   1.8114   1.8648   1.8680   1.8935   1.8978   2.0159
     2.0831   2.0853   2.1077   2.1258   2.1301   2.1502   2.1568   2.2829
     2.3594   2.4003   2.4482   2.4676   2.5074   2.6030   2.6404   2.7294
     2.7808   2.8274   2.8739   2.9089   2.9158   2.9751   3.0073   3.0353
     3.0776   3.1053   3.1478   3.1612   3.2912   3.3714   3.3766   3.3897
     3.5082   3.5346   3.5841   3.6043   3.6144   3.6776   3.7244   3.7289
     3.7702   3.7819   3.8328   3.8754   3.8762   3.8909   3.8956   3.9641
     3.9766   4.0116   4.0395   4.0538   4.0706   4.1029   4.1104   4.2196
     4.2574   4.2857   4.3208   4.3528   4.4309   4.4596   4.5247   4.5384
     4.5621   4.5689   4.5735   4.5876   4.5932   4.6130   4.6480   4.6515
     4.6573   4.7194   4.7441   4.7703   4.7825   4.8872   4.9117   4.9237
     4.9310   4.9311   4.9459   4.9857   5.0193   5.0312   5.1020   5.1140
     5.1287   5.1324   5.1900   5.1927   5.2489   5.2611   5.2651   5.3494
     5.3702   5.4137   5.4391   5.4597   5.4601   5.4731   5.4959   5.5006
     5.5118   5.5390   5.5497   5.6067   5.6391   5.6645   5.6671   5.7609
     5.7710   5.7919   5.7925   5.8245   5.8765   5.8944   5.9038   5.9087
     5.9654   6.0294   6.0556   6.0640   6.0917   6.1309   6.1328   6.1375
     6.1672   6.1761   6.2236   6.2286   6.2334   6.2595   6.2857   6.2990
     6.3172   6.3605   6.3929   6.3930   6.4280   6.4347   6.5062   6.5415
     6.5559   6.5765   6.5885   6.5951   6.6573   6.6874   6.7046   6.7668
     6.7869   6.7938   6.8756   6.8810   6.9572   6.9591   6.9860   7.0090
     7.0109   7.0745   7.1128   7.1209   7.1766   7.1904   7.2227   7.2431
     7.2798   7.2844   7.2846   7.3241   7.3383   7.3544   7.3888   7.4567
     7.4849   7.5213   7.5247   7.5250   7.5764   7.6036   7.6240   7.6320
     7.6895   7.6913   7.6956   7.7172   7.7551   7.8625   7.8958   7.9008
     7.9659   8.0091   8.0181   8.0190   8.0246   8.0727   8.1093   8.1516
     8.1531   8.1720   8.2081   8.2216   8.2224   8.2584   8.2988   8.3866
     8.4032   8.4126   8.4192   8.4281   8.4707   8.5118   8.5169   8.5188
     8.5226   8.5675   8.5861   8.6129   8.6421   8.6618   8.7161   8.7564
     8.7700   8.7761   8.8086   8.8346   8.8524   8.8621   8.9569   9.0709
     9.0769   9.1278   9.1514   9.2197   9.2220   9.2858   9.3206   9.3530
     9.3602   9.5190   9.8108

          k =-0.5000-1.0000 0.0000 (137240 PWs)   bands (ev):

   -25.0233 -25.0232 -25.0029 -25.0028 -24.5194 -24.5194 -24.5062 -24.5061
   -24.2393 -24.2393 -24.2270 -24.2270 -23.9346 -23.9345 -23.8262 -23.8261
   -23.7399 -23.7399 -23.6953 -23.6953 -23.5864 -23.5864 -23.5528 -23.5528
   -23.4422 -23.4421 -23.4376 -23.4376 -23.4071 -23.4070 -23.3987 -23.3987
   -23.3594 -23.3594 -23.3541 -23.3541 -23.2164 -23.2163 -23.2150 -23.2149
   -22.9959 -22.9959 -22.8825 -22.8825 -22.6603 -22.6603 -22.5788 -22.5787
   -21.3234 -21.3233 -21.3172 -21.3172 -21.0995 -21.0995 -21.0795 -21.0795
   -20.8289 -20.8289 -20.7926 -20.7925 -20.4897 -20.4896 -20.4850 -20.4850
   -12.9435 -12.9434 -12.9067 -12.9067 -12.8248 -12.8248 -12.7933 -12.7933
   -12.6643 -12.6643 -12.5545 -12.5544 -12.5544 -12.5543 -12.4858 -12.4858
   -12.4216 -12.4216 -12.3970 -12.3970 -12.3750 -12.3750 -12.2791 -12.2791
   -12.2220 -12.2220 -12.1785 -12.1785 -12.1602 -12.1601 -11.8937 -11.8937
   -11.8860 -11.8859 -11.6849 -11.6849 -11.6300 -11.6300 -11.5218 -11.5217
   -11.3811 -11.3810 -11.2676 -11.2676 -11.1929 -11.1929 -10.9826 -10.9826
   -10.9793 -10.9793 -10.9595 -10.9595 -10.8822 -10.8821 -10.7755 -10.7755
   -10.5881 -10.5881 -10.4502 -10.4502 -10.4501 -10.4501 -10.3791 -10.3790
   -10.3025 -10.3025 -10.2941 -10.2941 -10.1155 -10.1155  -9.9586  -9.9586
    -9.9431  -9.9431  -9.8667  -9.8667  -9.8287  -9.8286  -9.7359  -9.7358
    -9.7032  -9.7032  -9.6876  -9.6876  -9.6488  -9.6488  -9.6118  -9.6118
    -9.5418  -9.5418  -9.5018  -9.5018  -9.3751  -9.3751  -9.3567  -9.3566
    -9.2857  -9.2857  -9.2212  -9.2211  -9.1931  -9.1931  -9.1762  -9.1762
    -9.0895  -9.0895  -9.0824  -9.0824  -8.9816  -8.9816  -8.9419  -8.9418
    -8.9094  -8.9094  -8.9083  -8.9082  -8.8247  -8.8246  -8.7817  -8.7816
    -8.6688  -8.6687  -8.5938  -8.5938  -8.4835  -8.4835  -8.3840  -8.3839
    -8.3493  -8.3493  -8.3088  -8.3088  -8.2114  -8.2113  -8.1581  -8.1581
    -8.1100  -8.1100  -8.0646  -8.0645  -8.0351  -8.0351  -7.9663  -7.9663
    -7.9293  -7.9293  -7.7800  -7.7800  -7.7294  -7.7293  -7.6773  -7.6772
    -7.6476  -7.6476  -7.5574  -7.5574  -7.3775  -7.3775  -7.2886  -7.2886
    -7.0115  -7.0114  -6.7446  -6.7446  -6.7227  -6.7227  -6.2937  -6.2937
    -5.9580  -5.9579  -5.8815  -5.8814  -5.8004  -5.8004  -5.7001  -5.7001
    -5.6449  -5.6448  -5.5329  -5.5329  -5.5010  -5.5009  -5.4279  -5.4279
    -5.3372  -5.3372  -5.3221  -5.3220  -5.1018  -5.1018  -4.9237  -4.9236
    -2.7147  -2.7146  -2.6787  -2.6786  -2.3507  -2.3507  -2.2357  -2.2356
    -1.5011  -1.5010  -1.3346  -1.3346  -0.8777  -0.8776  -0.8675  -0.8675
    -0.1229  -0.1229  -0.1087  -0.1087  -0.0877  -0.0877  -0.0836  -0.0836
     0.2549   0.2549   0.2651   0.2651   0.8833   0.8833   0.9172   0.9172
     1.1064   1.1064   1.1070   1.1071   1.3678   1.3678   1.4002   1.4002
     1.4551   1.4551   1.5203   1.5203   1.6252   1.6252   1.9042   1.9042
     1.9322   1.9323   2.0297   2.0297   2.0789   2.0789   2.0894   2.0894
     2.3491   2.3491   2.5347   2.5347   2.5664   2.5664   2.6189   2.6189
     2.6478   2.6478   2.6506   2.6506   2.8198   2.8198   2.9527   2.9527
     3.1151   3.1151   3.1365   3.1365   3.1973   3.1973   3.3517   3.3517
     3.5720   3.5720   3.5901   3.5901   3.6650   3.6650   3.7106   3.7107
     3.8550   3.8551   4.0581   4.0581   4.0617   4.0617   4.1101   4.1101
     4.1456   4.1457   4.1859   4.1859   4.3103   4.3103   4.3587   4.3587
     4.3761   4.3761   4.3887   4.3887   4.4433   4.4433   4.5045   4.5045
     4.5046   4.5046   4.5300   4.5300   4.5679   4.5679   4.6229   4.6229
     4.6782   4.6782   4.6860   4.6860   4.8250   4.8250   4.9919   4.9920
     5.0249   5.0250   5.0680   5.0680   5.0704   5.0704   5.1535   5.1535
     5.2436   5.2436   5.2824   5.2824   5.3179   5.3179   5.3660   5.3660
     5.4160   5.4160   5.4188   5.4188   5.5342   5.5342   5.5611   5.5612
     5.6053   5.6053   5.6424   5.6423   5.6623   5.6624   5.7299   5.7300
     5.7415   5.7415   5.8398   5.8398   5.8946   5.8946   5.9686   5.9686
     6.0367   6.0367   6.1044   6.1044   6.1544   6.1544   6.1685   6.1686
     6.2197   6.2197   6.2533   6.2534   6.3389   6.3389   6.3419   6.3420
     6.4016   6.4016   6.4505   6.4505   6.4965   6.4965   6.5411   6.5411
     6.6469   6.6469   6.7735   6.7735   6.8299   6.8299   6.8428   6.8428
     6.9386   6.9397   6.9569   6.9583   7.0529   7.0540   7.0579   7.0582
     7.1196   7.1192   7.1995   7.1985   7.2126   7.2129   7.2498   7.2507
     7.2537   7.2544   7.3099   7.3102   7.3752   7.3757   7.4384   7.4393
     7.4558   7.4577   7.4700   7.4726   7.6038   7.6045   7.6367   7.6382
     7.6506   7.6515   7.7135   7.7137   7.7455   7.7460   7.9024   7.9021
     7.9238   7.9265   7.9803   7.9810   8.0718   8.0721   8.0799   8.0825
     8.1426   8.1505   8.2081   8.2116   8.2432   8.2435   8.3369   8.3393
     8.3774   8.3755   8.4058   8.4082   8.5000   8.4999   8.5079   8.5079
     8.5168   8.5229   8.6285   8.6300   8.6525   8.6640   8.7219   8.7235
     8.7946   8.8250   8.8261   8.8266   8.9066   8.9154   8.9893   8.9988
     8.9992   9.0534   9.0767   9.1079   9.1390   9.1366   9.2456   9.2519
     9.2929   9.3093   9.3215

     the Fermi energy is     6.7930 ev

!    total energy              =   -2705.25029380 Ry
     estimated scf accuracy    <       0.00008321 Ry
     smearing contrib. (-TS)   =       0.00021525 Ry
     internal energy E=F+TS    =   -2705.25050905 Ry

     The total energy is F=E-TS. E is the sum of the following terms:
     one-electron contribution =  -96420.97664290 Ry
     hartree contribution      =   48624.73865777 Ry
     xc contribution           =   -1118.75172176 Ry
     ewald contribution        =   46209.73919783 Ry

     convergence has been achieved in  32 iterations

     negative rho (up, down):  4.486E-03 0.000E+00

     Forces acting on atoms (cartesian axes, Ry/au):

     atom    1 type  2   force =     0.05719729    0.05724429    0.67835334
     atom    2 type  2   force =    -0.05710072   -0.05738073    0.67835970
     atom    3 type  2   force =     0.05718321    0.05735631    0.67834483
     atom    4 type  2   force =    -0.05721114   -0.05724872    0.67838660
     atom    5 type  1   force =    -0.38436351    0.38432891    1.36267091
     atom    6 type  1   force =    -0.02485358    0.02487433    1.76834016
     atom    7 type  1   force =     0.38436413   -0.38436234    1.36267732
     atom    8 type  1   force =     0.02485203   -0.02489051    1.76836088
     atom    9 type  1   force =    -0.02486076    0.02487501    1.76833301
     atom   10 type  1   force =    -0.38434422    0.38434603    1.36267597
     atom   11 type  1   force =     0.02487442   -0.02487606    1.76833093
     atom   12 type  1   force =     0.38437943   -0.38434954    1.36269309
     atom   13 type  2   force =     0.23461195    0.23462394    0.39892369
     atom   14 type  2   force =    -0.23462940   -0.23460958    0.39893541
     atom   15 type  2   force =     0.23455332    0.23465233    0.39895339
     atom   16 type  2   force =    -0.23462884   -0.23460487    0.39891011
     atom   17 type  1   force =    -0.00002347    0.00002406    0.09407505
     atom   18 type  1   force =    -0.00001217   -0.00001095    0.09410106
     atom   19 type  1   force =    -0.19374834   -0.01294856    0.23714882
     atom   20 type  1   force =     0.00001290   -0.00001474    0.26799510
     atom   21 type  1   force =     0.19377381    0.01289656    0.23714245
     atom   22 type  1   force =     0.01287932    0.19371239    0.23718642
     atom   23 type  1   force =    -0.01287047   -0.19373190    0.23717079
     atom   24 type  1   force =    -0.00002572    0.00000722    0.26801118
     atom   25 type  1   force =     0.19375717    0.01292341    0.23716481
     atom   26 type  1   force =    -0.19378277   -0.01286727    0.23715159
     atom   27 type  1   force =     0.01287926    0.19373351    0.23718460
     atom   28 type  1   force =    -0.01287527   -0.19374451    0.23721421
     atom   29 type  1   force =     0.00000353    0.00000084    0.25992735
     atom   30 type  1   force =    -0.00000423    0.00003836    0.25995075
     atom   31 type  2   force =    -0.34600273    0.34592958    0.25719052
     atom   32 type  2   force =     0.34595402   -0.34597160    0.25720944
     atom   33 type  2   force =    -0.34590922    0.34599853    0.25716073
     atom   34 type  2   force =     0.34597770   -0.34599506    0.25717822
     atom   35 type  1   force =    -0.00190018   -0.00190559   -0.00500878
     atom   36 type  1   force =     0.00360903    0.00356250   -0.01642175
     atom   37 type  1   force =     0.00188471    0.00191999   -0.00501325
     atom   38 type  1   force =    -0.00359789   -0.00357110   -0.01643930
     atom   39 type  1   force =     0.00362813    0.00358964   -0.01645577
     atom   40 type  1   force =    -0.00189930   -0.00191985   -0.00500432
     atom   41 type  1   force =    -0.00361470   -0.00357979   -0.01643559
     atom   42 type  1   force =     0.00188491    0.00192473   -0.00497679
     atom   43 type  2   force =    -0.30213804    0.30216830   -0.40189620
     atom   44 type  2   force =     0.30212284   -0.30219347   -0.40187319
     atom   45 type  2   force =    -0.30213556    0.30216611   -0.40186835
     atom   46 type  2   force =     0.30219478   -0.30217128   -0.40189410
     atom   47 type  1   force =    -0.00000675    0.00001615   -0.18443338
     atom   48 type  1   force =     0.00001298   -0.00000545   -0.18437654
     atom   49 type  1   force =     0.00184344    0.19441339   -0.00423326
     atom   50 type  1   force =    -0.00185635   -0.19443653   -0.00423379
     atom   51 type  1   force =     0.19442042    0.00184903   -0.00425152
     atom   52 type  1   force =    -0.19443722   -0.00184850   -0.00424708
     atom   53 type  1   force =     0.00000474    0.00000846    0.01592595
     atom   54 type  1   force =     0.00184815    0.19441115   -0.00421318
     atom   55 type  1   force =    -0.00182594   -0.19442004   -0.00423401
     atom   56 type  1   force =    -0.19441940   -0.00183999   -0.00425294
     atom   57 type  1   force =    -0.00000737    0.00000491    0.01587932
     atom   58 type  1   force =     0.19441423    0.00187314   -0.00429053
     atom   59 type  1   force =    -0.00000270   -0.00000321    0.18108079
     atom   60 type  1   force =    -0.00000098    0.00001354    0.18108012
     atom   61 type  2   force =     0.30467242    0.30470826    0.35984422
     atom   62 type  2   force =    -0.30468919   -0.30472034    0.35991627
     atom   63 type  2   force =     0.30466522    0.30467284    0.35988080
     atom   64 type  2   force =    -0.30467590   -0.30465707    0.35990697
     atom   65 type  1   force =     0.01104682   -0.01109809    0.02762152
     atom   66 type  1   force =    -0.00473495    0.00471245    0.04063787
     atom   67 type  1   force =    -0.01106749    0.01110370    0.02762119
     atom   68 type  1   force =     0.00476255   -0.00470870    0.04066978
     atom   69 type  1   force =    -0.00474110    0.00472439    0.04066017
     atom   70 type  1   force =     0.01104109   -0.01109115    0.02762574
     atom   71 type  1   force =     0.00475120   -0.00470909    0.04066308
     atom   72 type  1   force =    -0.01105869    0.01109656    0.02760932
     atom   73 type  2   force =     0.33657133    0.33662772   -0.21268549
     atom   74 type  2   force =    -0.33660194   -0.33661673   -0.21266946
     atom   75 type  2   force =     0.33662965    0.33660240   -0.21263238
     atom   76 type  2   force =    -0.33665272   -0.33660292   -0.21266294
     atom   77 type  1   force =    -0.00000865   -0.00000806   -0.21446697
     atom   78 type  1   force =     0.00002858   -0.00000451   -0.21444047
     atom   79 type  1   force =     0.00001489   -0.00001257   -0.00963513
     atom   80 type  1   force =     0.17981634   -0.01324926   -0.00442788
     atom   81 type  1   force =    -0.17981934    0.01324529   -0.00447871
     atom   82 type  1   force =    -0.01326921    0.17982541   -0.00442935
     atom   83 type  1   force =     0.01328767   -0.17984008   -0.00443309
     atom   84 type  1   force =    -0.17980753    0.01323458   -0.00444771
     atom   85 type  1   force =    -0.00000710    0.00001049   -0.00967979
     atom   86 type  1   force =     0.17980506   -0.01322589   -0.00445089
     atom   87 type  1   force =    -0.01328845    0.17979883   -0.00443592
     atom   88 type  1   force =     0.01326775   -0.17979762   -0.00443907
     atom   89 type  1   force =     0.00000903    0.00002614    0.17144609
     atom   90 type  1   force =     0.00003142   -0.00000052    0.17142385
     atom   91 type  2   force =    -0.35399133    0.35399611   -0.07686456
     atom   92 type  2   force =     0.35399597   -0.35401892   -0.07687276
     atom   93 type  2   force =    -0.35404331    0.35399392   -0.07693321
     atom   94 type  2   force =     0.35400959   -0.35395135   -0.07689467
     atom   95 type  1   force =     0.02478870    0.02479892   -0.11033815
     atom   96 type  1   force =    -0.03139895   -0.03140803   -0.12374965
     atom   97 type  1   force =    -0.02479691   -0.02478983   -0.11032533
     atom   98 type  1   force =     0.03140087    0.03140704   -0.12376711
     atom   99 type  1   force =    -0.03139808   -0.03140722   -0.12380563
     atom  100 type  1   force =     0.02476312    0.02482888   -0.11031686
     atom  101 type  1   force =     0.03142164    0.03139233   -0.12374874
     atom  102 type  1   force =    -0.02476963   -0.02479728   -0.11032544
     atom  103 type  2   force =    -0.26371074    0.26372605   -0.46716718
     atom  104 type  2   force =     0.26374465   -0.26371059   -0.46714212
     atom  105 type  2   force =    -0.26370907    0.26367444   -0.46718775
     atom  106 type  2   force =     0.26371013   -0.26366417   -0.46720002
     atom  107 type  1   force =    -0.00003879   -0.00000352   -1.23472068
     atom  108 type  1   force =    -0.00004414   -0.00002558   -1.23476648
     atom  109 type  1   force =    -0.01115631    0.28330921   -1.23631866
     atom  110 type  1   force =     0.01119454   -0.28330506   -1.23634196
     atom  111 type  1   force =    -0.28328020    0.01114969   -1.23634751
     atom  112 type  1   force =    -0.00000967    0.00000217   -1.22583350
     atom  113 type  1   force =     0.28327496   -0.01112549   -1.23633901
     atom  114 type  1   force =    -0.01113475    0.28328587   -1.23632057
     atom  115 type  1   force =     0.01113949   -0.28328695   -1.23634051
     atom  116 type  1   force =     0.28329585   -0.01116074   -1.23633458
     atom  117 type  1   force =    -0.28327828    0.01112465   -1.23633977
     atom  118 type  1   force =     0.00000399   -0.00000598   -1.22584069
     atom  119 type  1   force =     0.00000091    0.00000650   -1.04894490
     atom  120 type  1   force =     0.00002256   -0.00000983   -1.04893903
     atom  121 type  2   force =     0.05721414    0.05727571    0.67840195
     atom  122 type  2   force =    -0.05721653   -0.05736161    0.67843001
     atom  123 type  2   force =     0.05720535    0.05724871    0.67837363
     atom  124 type  2   force =    -0.05718785   -0.05729147    0.67847464
     atom  125 type  1   force =    -0.38437785    0.38438264    1.36268725
     atom  126 type  1   force =    -0.02484599    0.02486764    1.76835563
     atom  127 type  1   force =     0.38435270   -0.38435100    1.36268962
     atom  128 type  1   force =     0.02485214   -0.02488206    1.76830933
     atom  129 type  1   force =    -0.02486777    0.02487150    1.76826725
     atom  130 type  1   force =    -0.38438489    0.38435405    1.36271005
     atom  131 type  1   force =     0.02484326   -0.02484650    1.76836565
     atom  132 type  1   force =     0.38439459   -0.38436861    1.36270460
     atom  133 type  2   force =     0.23469410    0.23460703    0.39889432
     atom  134 type  2   force =    -0.23455223   -0.23463910    0.39890960
     atom  135 type  2   force =     0.23460242    0.23469185    0.39886232
     atom  136 type  2   force =    -0.23467206   -0.23461871    0.39894268
     atom  137 type  1   force =    -0.00001276   -0.00001365    0.09407617
     atom  138 type  1   force =     0.00003088    0.00000731    0.09405067
     atom  139 type  1   force =    -0.19376181   -0.01286532    0.23714775
     atom  140 type  1   force =     0.00002878    0.00003647    0.26801045
     atom  141 type  1   force =     0.19375865    0.01287307    0.23712579
     atom  142 type  1   force =     0.01284801    0.19373620    0.23717495
     atom  143 type  1   force =    -0.01287216   -0.19374294    0.23717670
     atom  144 type  1   force =    -0.00001292   -0.00000768    0.26798246
     atom  145 type  1   force =     0.19376328    0.01287147    0.23712205
     atom  146 type  1   force =    -0.19374772   -0.01290547    0.23715925
     atom  147 type  1   force =     0.01282494    0.19377509    0.23717360
     atom  148 type  1   force =    -0.01285438   -0.19375832    0.23718837
     atom  149 type  1   force =    -0.00004169    0.00000511    0.25999348
     atom  150 type  1   force =    -0.00000011    0.00002183    0.25995875
     atom  151 type  2   force =    -0.34598562    0.34593898    0.25723446
     atom  152 type  2   force =     0.34594987   -0.34593530    0.25722701
     atom  153 type  2   force =    -0.34601309    0.34604319    0.25719508
[...]
Al            6.1839168463        4.1479658713       17.0085672457
Al            0.0020484689        6.1970929247       17.0103891675
Al            4.1479271933        6.1839341172       17.0085367234
O             0.0804771715        0.0803885617       16.9099102192
O             1.9859075923        1.9859468791       16.9099402264
O             4.2132588389        4.2131799012       16.9098981635
O             6.1186869000        6.1186452766       16.9099472245
Al            3.0995842398        3.0995752388       16.0084860629
Al            7.2323273709        7.2323313648       16.0084732394
Al            3.1315039851        1.0364377107       16.0039834782
Al            5.1659460200        1.0332017118       15.9981548383
Al            7.2003616270        1.0299602994       16.0040038396
Al            5.1627407741        3.0676597642       16.0039542568
Al            1.0363696690        3.1314973987       16.0039550233
Al            1.0331994099        5.1659494486       15.9981324750
Al            3.0676243307        5.1627137908       16.0039620128
Al            7.2642599667        5.1691403748       16.0039762299
Al            1.0299819548        7.2003976511       16.0039557496
Al            5.1691388519        7.2642538434       16.0039330649
Al            7.2323015819        3.0995622898       16.0022899520
Al            3.0995594323        7.2322803352       16.0022720899
O             1.9834205304        0.0830262924       15.0575751517
O             0.0830101268        1.9833807264       15.0575944825
O             6.1160989610        4.2157515252       15.0576238927
O             4.2157348210        6.1161654812       15.0575768834
Al           -0.0023851506       -0.0024028564       14.9788079374
Al            4.1346257620        0.0018873696       14.9854441413
Al            2.0687802031        2.0687516556       14.9787870175
Al            6.1972331872        2.0644707500       14.9854503979
Al            0.0018831373        4.1346549758       14.9854877371
Al            4.1303524296        4.1303832144       14.9787902599
Al            2.0645092657        6.1972422277       14.9854563890
Al            6.2015236597        6.2015166334       14.9787654907
O             4.0487710185        2.1503987721       14.8855474424
O             2.1503927822        4.0487929013       14.8855292826
O             8.1815331776        6.2831374224       14.8855233731
O             6.2831014816        8.1815357159       14.8855125793
Al            5.1659437010        1.0331802437       13.9977423088
Al            1.0331923018        5.1659541661       13.9977333268
Al            3.1001553465        1.0084828935       13.9908256598
Al            7.2317320595        1.0579198431       13.9908109998
Al            1.0084890330        3.1001528076       13.9908566469
Al            5.1906736892        3.0989779441       13.9908402565
Al            7.2323314884        3.0995758303       13.9889327122
Al            7.2329004081        5.1412315281       13.9908218236
Al            3.0989663387        5.1906784235       13.9908345638
Al            1.0579189602        7.2317237302       13.9908734368
Al            3.0995829424        7.2322997756       13.9889960141
Al            5.1412219532        7.2328966939       13.9908539774
Al            1.0331672963        1.0331864740       13.9787016807
Al            5.1659217155        5.1659493907       13.9786975484
O             2.1466830803        2.1466337237       13.0807439310
O             4.0524766570        4.0525244636       13.0807044534
O             6.2794114406        6.2793869225       13.0807474054
O             8.1852540683        8.1852072857       13.0807552562
Al            2.0668957310       -0.0004769252       12.9908643580
Al            6.1997480045       -0.0006282947       12.9930104859
Al           -0.0005122314        2.0668192587       12.9908506326
Al            4.1321048562        2.0669944504       12.9930118789
Al            2.0670224098        4.1321363547       12.9930132437
Al            6.1996507984        4.1322682578       12.9908658811
Al           -0.0006444465        6.1997435832       12.9930097126
Al            4.1322600667        6.1996101434       12.9908623726
O             4.2196307403        0.0868508028       12.9147956910
O             6.1122710092        1.9795167882       12.9147343954
O             0.0868096253        4.2195750837       12.9147056431
O             1.9795750230        6.1123260970       12.9147228784
Al            7.2323308717        3.0995719042       11.9985846708
Al            3.0995962143        7.2323254810       11.9985412007
Al            1.0331557508        1.0331849651       11.9876643905
Al            3.0727389644        1.0328597575       11.9854640291
Al            7.2591454044        1.0335089898       11.9854897885
Al            1.0328603959        3.0727313897       11.9854553504
Al            5.1662405691        3.1264051512       11.9854775311
Al            3.1263961445        5.1662922645       11.9854943592
Al            5.1659310550        5.1659679756       11.9877002945
Al            7.2055147735        5.1656049552       11.9854971656
Al            5.1656289950        7.2054888323       11.9854664301
Al            1.0334882462        7.2591270167       11.9854489323
Al            3.0995598078        3.0995442165       11.9797976566
Al            7.2322873599        7.2323493318       11.9798050053
O             6.1122745270        0.0868967516       11.0774354664
O             4.2196273908        1.9795459964       11.0774312499
O             1.9795417246        4.2196006662       11.0775213997
O             0.0868431550        6.1122482387       11.0775179004
Al           -0.0022973203       -0.0022892868       10.9774903722
Al            4.1404872559        0.0077092059       10.9823459165
Al            2.0686816339        2.0686758328       10.9774679407
Al            6.1914178005        2.0586371701       10.9823527846
Al            0.0077267943        4.1404889142       10.9823588122
Al            4.1304917797        4.1304376281       10.9774860677
Al            2.0586308643        6.1914172552       10.9823305827
Al            6.2013872500        6.2014587577       10.9774928436
O             8.1956997504        2.1361657440       10.9311057123
O             6.2689327708        4.0629293354       10.9311040511
O             4.0629151941        6.2689948489       10.9311279474
O             2.1362191908        8.1956328498       10.9311397161
Al            1.0332097301        1.0331763362        9.9906005752
Al            5.1659780150        5.1659646106        9.9906375022
Al            7.2401754699        1.0198137246        9.9737672494
Al            3.0916797563        1.0465525058        9.9737790446
Al            1.0465283151        3.0917200208        9.9737686103
Al            3.0995728651        3.0995462462        9.9799554851
Al            5.1526055848        3.1073952747        9.9737665715
Al            3.1074031503        5.1526171541        9.9737475356
Al            7.2244741762        5.1792894041        9.9737500276
Al            1.0198380253        7.2401837699        9.9737733838
Al            5.1792824676        7.2244933675        9.9737993511
Al            7.2323285095        7.2323521299        9.9799754340
Al            5.1659424773        1.0331704720        9.9613683772
Al            1.0331602518        5.1659581058        9.9613606713
O            14.5210661558        2.1228147427       17.0291473172
O            16.4745558640        4.0764011912       17.0291290112
O            10.3883234914        6.2555419919       17.0291053288
O            12.3417848082        8.2091307941       17.0290418311
Al           10.3167119738        0.0151812842       17.0085448099
Al           14.4625719375        0.0020516313       17.0103921287
Al            8.2807127670        2.0511602647       17.0085600892
Al           12.4003245064        2.0643329643       17.0104153760
Al           10.3298448692        4.1347923930       17.0104782560
Al           14.4494628325        4.1479521377       17.0085442567
Al            8.2675667089        6.1970833800       17.0104026554
Al           12.4134460147        6.1839461287       17.0085454501
O             8.3459207690        0.0804429591       16.9099780310
O            10.2513628482        1.9860052085       16.9099857394
O            12.4787202326        4.2131718942       16.9099786316
O            14.3842187138        6.1187071149       16.9099304175
Al           11.3651122765        3.0995609944       16.0084878017
Al           15.4978187437        7.2322980469       16.0084989252
Al           11.3970247539        1.0363880810       16.0039866057
Al           13.4314199146        1.0331765643       15.9981357889
Al           15.4658897032        1.0299922490       16.0039942595
Al           13.4282609363        3.0676405741       16.0039902523
Al            9.3018935885        3.1314675260       16.0039618019
Al            9.2987020814        5.1659691709       15.9981529816
Al           11.3331453443        5.1627430507       16.0040089692
Al           15.5297838044        5.1691832197       16.0039786710
Al            9.2955410849        7.2003753215       16.0039696457
Al           13.4346499832        7.2642512444       16.0039640027
Al           15.4978716444        3.0995519100       16.0022741575
Al           11.3650755788        7.2323170033       16.0022692410
O            10.2489092396        0.0830122089       15.0575675099
O             8.3484833630        1.9833724833       15.0575440013
O            14.3816695137        4.2156812499       15.0576061519
O            12.4812769436        6.1161457984       15.0575350740
Al            8.2631178850       -0.0024063727       14.9787863713
Al           12.4001646973        0.0018942982       14.9854890653
Al           10.3342852775        2.0687397053       14.9787870391
Al           14.4627578336        2.0644524603       14.9854776319
Al            8.2673704673        4.1346374719       14.9854303847
Al           12.3958539774        4.1303751600       14.9787915334
Al           10.3299946885        6.1972693491       14.9854672024
Al           14.4670452397        6.2015359327       14.9787950797
O            12.3142668422        2.1503418930       14.8855059297
O            10.4159044975        4.0487496575       14.8855164393
O            16.4470762168        6.2830837574       14.8854571585
O            14.5486195942        8.1815516875       14.8854855169
Al           13.4314368781        1.0331691008       13.9977508694
Al            9.2986864415        5.1659583934       13.9977102466
Al           11.3656954607        1.0084647025       13.9908482476
Al           15.4972634400        1.0579226294       13.9908132625
Al            9.2739601746        3.1001572598       13.9908151411
Al           13.4561547773        3.0989523877       13.9908294982
Al           15.4978441464        3.0995731865       13.9889960626
Al           15.4984061249        5.1412529161       13.9908434545
Al           11.3644758473        5.1906660278       13.9908349162
Al            9.3234245759        7.2317350007       13.9908579338
Al           11.3650796217        7.2323326199       13.9889945033
Al           13.4067447113        7.2328932014       13.9908464999
Al            9.2986904190        1.0332165474       13.9786802461
Al           13.4314697071        5.1659684694       13.9786850757
O            10.4120945274        2.1466045417       13.0807399074
O            12.3180136918        4.0524761245       13.0807283777
O            14.5448893237        6.2793593153       13.0806985530
O            16.4507277597        8.1853282493       13.0807532700
Al           10.3323744388       -0.0004678571       12.9908575989
Al           14.4653114737       -0.0005897306       12.9929995806
Al            8.2649986990        2.0668690392       12.9908676968
Al           12.3976333809        2.0670131711       12.9929893666
Al           10.3325326533        4.1321229682       12.9929764714
Al           14.4651370678        4.1322935195       12.9908721943
Al            8.2648684774        6.1997719138       12.9929824969
Al           12.3977981570        6.1996038912       12.9908680586
O            12.4851370973        0.0868709498       12.9147246243
O            14.3777797838        1.9794718066       12.9147867256
O             8.3523982896        4.2196221748       12.9147893917
O            10.2450148097        6.1122759365       12.9146689454
Al           15.4978355495        3.0995728992       11.9985222344
Al           11.3650624607        7.2323365768       11.9985438571
Al            9.2986867357        1.0331762133       11.9877029642
Al           11.3382746604        1.0328921455       11.9854821212
Al           15.5246709230        1.0335134919       11.9855033032
Al            9.2983784125        3.0727339989       11.9854761504
Al           13.4317509697        3.1263703176       11.9854504228
Al           11.3918786881        5.1662781995       11.9854777193
Al           13.4314613447        5.1659740490       11.9877122214
Al           15.4710127739        5.1656158023       11.9855036818
Al           13.4311564932        7.2054874587       11.9854635341
Al            9.2989946723        7.2591434568       11.9854560511
Al           11.3651034138        3.0995430952       11.9797696020
Al           15.4978244908        7.2323222436       11.9797885520
O            14.3777874493        0.0868404864       11.0774592158
O            12.4851401640        1.9795111639       11.0774882986
O            10.2449700901        4.2196211719       11.0775178454
O             8.3523643271        6.1122351528       11.0775502261
Al            8.2631910502       -0.0023095568       10.9774652446
Al           12.4059612945        0.0077411164       10.9823764001
Al           10.3341956472        2.0687059303       10.9774719042
Al           14.4569239665        2.0586510849       10.9823676168
Al            8.2732282631        4.1405162568       10.9823362566
Al           12.3959854061        4.1304363037       10.9774597756
Al           10.3241596731        6.1913903381       10.9823409237
Al           14.4669349356        6.2014706859       10.9774621896
O            16.4612319261        2.1362261931       10.9311305756
O            14.5344753713        4.0629931549       10.9311412299
O            12.3284512360        6.2689325922       10.9311536518
O            10.4016967625        8.1956680980       10.9311342112
Al            9.2986711716        1.0331658230        9.9906271295
Al           13.4314770055        5.1659755737        9.9906572945
Al           15.5056627875        1.0198369945        9.9737656630
Al           11.3572318381        1.0465404515        9.9737955564
Al            9.3120612354        3.0917043974        9.9737661126
Al           11.3650752625        3.0995500601        9.9799772420
Al           13.4180967754        3.1074103521        9.9737850198
Al           11.3729152820        5.1525831840        9.9737704780
Al           15.4899620696        5.1793103917        9.9737777484
Al            9.2853547250        7.2401861917        9.9737758424
Al           13.4448158090        7.2244697271        9.9737746101
Al           15.4978033897        7.2322994585        9.9799738714
Al           13.4314506786        1.0331925524        9.9613903226
Al            9.2986984264        5.1659303646        9.9613680931



     Writing config-only to output data dir ./pwscf.save/
     NEW-OLD atomic charge density approx. for the potential

     negative rho (up, down):  4.322E-03 0.000E+00
     extrapolated charge  954.80392, renormalised to  912.00000

     total cpu time spent up to now is   125840.9 secs

     Self-consistent Calculation

     iteration #  1     ecut=    50.00 Ry     beta= 0.40
     CG style diagonalization
     c_bands: 40 eigenvalues not converged
     c_bands: 44 eigenvalues not converged
     c_bands: 56 eigenvalues not converged
     c_bands: 37 eigenvalues not converged
     c_bands: 49 eigenvalues not converged
     c_bands: 52 eigenvalues not converged
     ethr =  1.00E-06,  avg # of iterations = 82.5

     negative rho (up, down):  6.582E+01 0.000E+00

     total cpu time spent up to now is   159861.6 secs

     total energy              =   12163.07218629 Ry
     estimated scf accuracy    <  162618.91329214 Ry

     iteration #  2     ecut=    50.00 Ry     beta= 0.40
     CG style diagonalization
     ethr =  1.00E-02,  avg # of iterations = 27.6

     negative rho (up, down):  5.388E+01 0.000E+00

     total cpu time spent up to now is   171084.5 secs

     total energy              =   -3163.80443528 Ry
     estimated scf accuracy    <     578.89334837 Ry

     iteration #  3     ecut=    50.00 Ry     beta= 0.40
     CG style diagonalization
     ethr =  1.00E-02,  avg # of iterations =  3.0

     negative rho (up, down):  2.921E+01 0.000E+00

     total cpu time spent up to now is   172053.6 secs

     total energy              =   -2961.49284951 Ry
     estimated scf accuracy    <     497.27145541 Ry

     iteration #  4     ecut=    50.00 Ry     beta= 0.40
     CG style diagonalization

     Maximum CPU time exceeded

     max_seconds     =  172800.00
     elapsed seconds =  172880.42
     Calculation stopped in k-point loop, point #     5
     Calculation stopped in scf loop at iteration #     3

     Writing config to output data dir ./pwscf.save/
 
     init_run     :     92.70s CPU    111.73s WALL (       1 calls)
     electrons    : 166318.97s CPU 172028.70s WALL (       3 calls)
     update_pot   :     11.60s CPU     11.70s WALL (       2 calls)
     forces       :     52.07s CPU     53.76s WALL (       2 calls)
     stress       :    671.14s CPU    673.43s WALL (       2 calls)

     Called by init_run:
     wfcinit      :     84.58s CPU    103.22s WALL (       1 calls)
     potinit      :      1.54s CPU      1.57s WALL (       1 calls)
     hinit0       :      3.40s CPU      3.45s WALL (       1 calls)

     Called by electrons:
     c_bands      : 165066.45s CPU 170409.63s WALL (      65 calls)
     sum_band     :   1041.01s CPU   1365.47s WALL (      64 calls)
     v_of_rho     :     24.52s CPU     26.89s WALL (      67 calls)
     newd         :     29.49s CPU     39.76s WALL (      67 calls)
     mix_rho      :    156.59s CPU    206.41s WALL (      64 calls)

     Called by c_bands:
     init_us_2    :     46.22s CPU     47.16s WALL (     803 calls)
     init_us_2:cp :     46.21s CPU     47.16s WALL (     803 calls)
     ccgdiagg     : 162120.90s CPU 166552.45s WALL (     467 calls)
     wfcrot       :   2984.76s CPU   3754.85s WALL (     455 calls)

     Called by *cgdiagg:
     h_psi        :  68127.27s CPU  72801.69s WALL ( 1213249 calls)
     s_psi        :  55586.68s CPU  55829.08s WALL ( 2426043 calls)

     Called by h_psi:
     h_psi:calbec :  29989.82s CPU  30267.97s WALL ( 1213249 calls)
     vloc_psi     :  10138.75s CPU  14339.23s WALL ( 1213249 calls)
     add_vuspsi   :  27946.03s CPU  28149.00s WALL ( 1213249 calls)
     hs_1psi      :  93451.18s CPU  97488.71s WALL ( 1212794 calls)
     s_1psi       :  56616.96s CPU  56874.14s WALL ( 1212794 calls)

     General routines
     calbec       :  59068.22s CPU  59522.84s WALL ( 2426487 calls)
     fft          :     32.43s CPU     36.00s WALL (     919 calls)
     ffts         :    111.43s CPU    159.09s WALL (   19093 calls)
     fftw         :  10461.79s CPU  14961.53s WALL ( 3138362 calls)
     interpolate  :      2.57s CPU      3.00s WALL (      67 calls)
     davcio       :      0.02s CPU      0.12s WALL (      12 calls)
 
     Parallel routines
 
     PWSCF        :   1d22h25m CPU   2d 0h 1m WALL

 
   This run was terminated on:  22:15:26   1Feb2023            

=------------------------------------------------------------------------------=
   JOB DONE.
=------------------------------------------------------------------------------=
